% Model:              PurmonSmall_traj-grid.mph
% Version:            COMSOL 4.3.0.151
% Date:               Mar 5 2014, 16:08
% Dimension:          2
% Nodes:              10000
% Expressions:        2
% Description:        , 
% Length unit:        mm
% r             z              es.Er (V/m) @ TopV=1 es.Ez (V/m) @ TopV=1
0.055           -4.7025        0.135713       -8057.867264
0.165           -4.7025        0.333436       -8057.411188
0.275           -4.7025        0.551451       -8056.488891
0.385           -4.7025        0.749358       -8055.092294
0.495           -4.7025        0.940688       -8053.218892
0.605           -4.7025        1.133012       -8050.866426
0.715           -4.7025        1.328173       -8048.026825
0.825           -4.7025        1.527417       -8044.689888
0.935           -4.7025        1.731184       -8040.843023
1.045           -4.7025        1.949215       -8036.46603
1.155           -4.7025        2.208194       -8031.526648
1.265           -4.7025        2.47744        -8026.025101
1.375           -4.7025        2.75821        -8019.940218
1.485           -4.7025        3.051814       -8013.248615
1.595           -4.7025        3.359625       -8005.924609
1.705           -4.7025        3.683087       -7997.940115
1.815           -4.7025        3.976999       -7989.234948
1.925           -4.7025        4.275139       -7979.79614
2.035           -4.7025        4.586824       -7969.592641
2.145           -4.7025        4.912952       -7958.585062
2.255           -4.7025        5.254456       -7946.730956
2.365           -4.7025        5.612307       -7933.984655
2.475           -4.7025        6.043713       -7920.263512
2.585           -4.7025        6.524347       -7905.530267
2.695           -4.7025        7.035487       -7889.74028
2.805           -4.7025        7.579519       -7872.832492
2.915           -4.7025        8.158974       -7854.741624
3.025           -4.7025        8.776541       -7835.397948
3.135           -4.7025        9.398061       -7814.703571
3.245           -4.7025        9.983402       -7792.551282
3.355           -4.7025        10.600346      -7768.897903
3.465           -4.7025        11.250618      -7743.652349
3.575           -4.7025        11.936009      -7716.717686
3.685           -4.7025        12.65838       -7687.990836
3.795           -4.7025        13.454538      -7657.341312
3.905           -4.7025        14.42903       -7624.592174
4.015           -4.7025        15.469784      -7589.687691
4.125           -4.7025        16.581273      -7552.495573
4.235           -4.7025        17.768202      -7512.875628
4.345           -4.7025        19.035513      -7470.679411
4.455           -4.7025        20.388379      -7425.749866
4.565           -4.7025        21.632879      -7377.794058
4.675           -4.7025        22.908511      -7326.721575
4.785           -4.7025        24.25233       -7272.367684
4.895           -4.7025        25.667387      -7214.535563
5.005           -4.7025        27.156797      -7153.018054
5.115           -4.7025        28.723734      -7087.597395
5.225           -4.7025        30.619721      -7017.896557
5.335           -4.7025        32.73415       -6943.744458
5.445           -4.7025        34.982512      -6864.942376
5.555           -4.7025        37.371269      -6781.226592
5.665           -4.7025        39.906784      -6692.322385
5.775           -4.7025        42.595215      -6597.94425
5.885           -4.7025        45.283458      -6497.695714
5.995           -4.7025        47.794315      -6391.154381
6.105           -4.7025        50.418695      -6278.187776
6.215           -4.7025        53.158638      -6158.471662
6.325           -4.7025        56.015821      -6031.675256
6.435           -4.7025        58.991512      -5897.462873
6.545           -4.7025        62.220767      -5755.41483
6.655           -4.7025        66.102983      -5604.952323
6.765           -4.7025        70.159604      -5446.025236
6.875           -4.7025        74.385784      -5278.304847
6.985           -4.7025        78.773661      -5101.47368
7.095           -4.7025        83.311797      -4915.230513
7.205           -4.7025        87.984543      -4719.296168
7.315           -4.7025        92.132356      -4513.0213
7.425           -4.7025        96.202327      -4296.48973
7.535           -4.7025        100.314269     -4069.628659
7.645           -4.7025        104.44876      -3832.337214
7.755           -4.7025        108.583641     -3584.583427
7.865           -4.7025        112.693853     -3326.416634
7.975           -4.7025        117.252025     -3057.667815
8.085           -4.7025        121.914464     -2778.778974
8.195           -4.7025        126.341189     -2490.316101
8.305           -4.7025        130.44382      -2192.827687
8.415           -4.7025        134.123402     -1887.023761
8.525           -4.7025        137.271176     -1573.791595
8.635           -4.7025        139.738408     -1254.200623
8.745           -4.7025        141.235433     -929.451445
8.855           -4.7025        142.135506     -601.325854
8.965           -4.7025        142.376529     -271.568602
9.075           -4.7025        141.899603     57.869314
9.185           -4.7025        140.650493     384.846644
9.295           -4.7025        138.307447     706.900887
9.405           -4.7025        134.497362     1021.437029
9.515           -4.7025        129.376799     1326.0102
9.625           -4.7025        122.959963     1618.112519
9.735           -4.7025        115.310098     1895.311012
9.845           -4.7025        106.537669     2155.321915
9.955           -4.7025        96.794717      2396.083393
10.065          -4.7025        87.764741      2614.86375
10.175          -4.7025        78.548944      2810.937022
10.285          -4.7025        69.062527      2983.388568
10.395          -4.7025        59.369961      3131.530826
10.505          -4.7025        49.535877      3254.980077
10.615          -4.7025        39.614053      3353.588327
10.725          -4.7025        28.604455      3426.779473
10.835          -4.7025        17.227163      3475.094741
10.945          -4.7025        6.52983        3499.065474
0.055           -4.6075        0.301371       -8058.529108
0.165           -4.6075        0.92675        -8058.0687
0.275           -4.6075        1.465138       -8057.171277
0.385           -4.6075        2.07778        -8055.785531
0.495           -4.6075        2.702882       -8053.921348
0.605           -4.6075        3.344495       -8051.578702
0.715           -4.6075        4.001414       -8048.750801
0.825           -4.6075        4.676097       -8045.42743
0.935           -4.6075        5.370403       -8041.596044
1.045           -4.6075        6.0869         -8037.242127
1.155           -4.6075        6.788335       -8032.322785
1.265           -4.6075        7.512883       -8026.842076
1.375           -4.6075        8.264827       -8020.780118
1.485           -4.6075        9.046834       -8014.113604
1.595           -4.6075        9.861675       -8006.816931
1.705           -4.6075        10.716369      -7998.85964
1.815           -4.6075        11.664251      -7990.18314
1.925           -4.6075        12.660667      -7980.781323
2.035           -4.6075        13.709766      -7970.617859
2.145           -4.6075        14.815914      -7959.653511
2.255           -4.6075        15.98371       -7947.845995
2.365           -4.6075        17.218004      -7935.149818
2.475           -4.6075        18.490823      -7921.493796
2.585           -4.6075        19.793626      -7906.81545
2.695           -4.6075        21.169093      -7891.084009
2.805           -4.6075        22.622085      -7874.238593
2.915           -4.6075        24.157714      -7856.214113
3.025           -4.6075        25.781353      -7836.941043
3.135           -4.6075        27.564317      -7816.30851
3.245           -4.6075        29.507457      -7794.240793
3.355           -4.6075        31.573188      -7770.677581
3.465           -4.6075        33.76983       -7745.528085
3.575           -4.6075        36.106161      -7718.695688
3.685           -4.6075        38.591439      -7690.077636
3.795           -4.6075        41.235421      -7659.564728
3.905           -4.6075        43.897568      -7626.938089
4.015           -4.6075        46.710885      -7592.157499
4.125           -4.6075        49.691593      -7555.09629
4.235           -4.6075        52.849235      -7515.61457
4.345           -4.6075        56.193752      -7473.564194
4.455           -4.6075        59.753658      -7428.777793
4.565           -4.6075        63.755098      -7380.97112
4.675           -4.6075        68.00906       -7330.079504
4.785           -4.6075        72.53001       -7275.916516
4.895           -4.6075        77.332892      -7218.285663
5.005           -4.6075        82.433085      -7156.980077
5.115           -4.6075        87.846341      -7091.782256
5.225           -4.6075        93.442436      -7022.365099
5.335           -4.6075        99.176721      -6948.446476
5.445           -4.6075        105.22849      -6869.887874
5.555           -4.6075        111.610805     -6786.42554
5.665           -4.6075        118.336544     -6697.784628
5.775           -4.6075        125.418266     -6603.679409
5.885           -4.6075        133.151831     -6503.653078
5.995           -4.6075        141.515575     -6397.418621
6.105           -4.6075        150.326483     -6284.767868
6.215           -4.6075        159.595427     -6165.375449
6.325           -4.6075        169.331024     -6038.909135
6.435           -4.6075        179.539073     -5905.031429
6.545           -4.6075        190.221891     -5763.401523
6.655           -4.6075        200.778378     -5613.281797
6.765           -4.6075        211.710134     -5454.671181
6.875           -4.6075        223.039058     -5287.260389
6.985           -4.6075        234.748919     -5110.728164
7.095           -4.6075        246.81744      -4924.768927
7.205           -4.6075        259.271016     -4729.065372
7.315           -4.6075        272.762265     -4522.952488
7.425           -4.6075        286.519872     -4306.630882
7.535           -4.6075        300.468814     -4079.932795
7.645           -4.6075        314.517657     -3842.746971
7.755           -4.6075        328.556626     -3595.029871
7.865           -4.6075        342.455684     -3336.818089
7.975           -4.6075        355.742132     -3068.052486
8.085           -4.6075        368.123021     -2788.918938
8.195           -4.6075        379.914814     -2500.098611
8.305           -4.6075        390.935402     -2202.127232
8.415           -4.6075        400.984718     -1895.702389
8.525           -4.6075        409.845748     -1581.699756
8.635           -4.6075        417.404824     -1261.058941
8.745           -4.6075        423.246032     -935.143167
8.855           -4.6075        426.823548     -605.659895
8.965           -4.6075        427.825043     -274.357268
9.075           -4.6075        425.954266     56.801751
9.185           -4.6075        420.947546     385.653793
9.295           -4.6075        412.592568     709.860642
9.405           -4.6075        401.44073      1026.343925
9.515           -4.6075        387.101092     1332.91873
9.625           -4.6075        369.715262     1626.983093
9.735           -4.6075        349.415572     1906.049335
9.845           -4.6075        326.416269     2167.780173
9.955           -4.6075        300.802833     2409.945559
10.065          -4.6075        271.505361     2629.928438
10.175          -4.6075        240.438239     2827.047038
10.285          -4.6075        208.109792     3000.290312
10.395          -4.6075        175.069861     3148.996128
10.505          -4.6075        141.675086     3272.818671
10.615          -4.6075        108.379684     3371.607387
10.725          -4.6075        76.918173      3444.553627
10.835          -4.6075        46.298909      3492.399976
10.945          -4.6075        16.166517      3515.640223
0.055           -4.5125        0.497139       -8059.922379
0.165           -4.5125        1.49383        -8059.466663
0.275           -4.5125        2.50958        -8058.556445
0.385           -4.5125        3.550899       -8057.191389
0.495           -4.5125        4.56446        -8055.342388
0.605           -4.5125        5.589871       -8053.016115
0.715           -4.5125        6.636475       -8050.209
0.825           -4.5125        7.707512       -8046.910171
0.935           -4.5125        8.806311       -8043.107298
1.045           -4.5125        9.956406       -8038.775148
1.155           -4.5125        11.170005      -8033.893295
1.265           -4.5125        12.428827      -8028.455854
1.375           -4.5125        13.737942      -8022.441873
1.485           -4.5125        15.102603      -8015.82824
1.595           -4.5125        16.528304      -8008.589559
1.705           -4.5125        18.020795      -8000.698053
1.815           -4.5125        19.557932      -7992.103449
1.925           -4.5125        21.146216      -7982.772528
2.035           -4.5125        22.814084      -7972.685348
2.145           -4.5125        24.567686      -7961.80292
2.255           -4.5125        26.413479      -7950.083221
2.365           -4.5125        28.358247      -7937.481037
2.475           -4.5125        30.484633      -7923.908511
2.585           -4.5125        32.741484      -7909.344314
2.695           -4.5125        35.131592      -7893.73521
2.805           -4.5125        37.664567      -7877.020762
2.915           -4.5125        40.350558      -7859.13635
3.025           -4.5125        43.200284      -7840.012945
3.135           -4.5125        46.221418      -7819.574322
3.245           -4.5125        49.327086      -7797.668889
3.355           -4.5125        52.618184      -7774.277921
3.465           -4.5125        56.106461      -7749.31112
3.575           -4.5125        59.804264      -7722.672375
3.685           -4.5125        63.72456       -7694.259459
3.795           -4.5125        67.951119      -7663.927598
3.905           -4.5125        72.541888      -7631.538948
4.015           -4.5125        77.422724      -7597.016727
4.125           -4.5125        82.611706      -7560.229671
4.235           -4.5125        88.127781      -7521.03863
4.345           -4.5125        93.990767      -7479.296206
4.455           -4.5125        100.221356     -7434.846393
4.565           -4.5125        106.723724     -7387.438278
4.675           -4.5125        113.514286     -7336.893056
4.785           -4.5125        120.707788     -7283.094311
4.895           -4.5125        128.325306     -7225.846072
5.005           -4.5125        136.388479     -7164.941954
5.115           -4.5125        144.919444     -7100.164877
5.225           -4.5125        154.276553     -7031.111819
5.335           -4.5125        164.21913      -6957.680173
5.445           -4.5125        174.746991     -6879.631236
5.555           -4.5125        185.886342     -6796.701218
5.665           -4.5125        197.66305      -6708.615008
5.775           -4.5125        210.102317     -6615.086336
5.885           -4.5125        223.210538     -6515.805551
5.995           -4.5125        236.582458     -6410.159027
6.105           -4.5125        250.629922     -6298.111927
6.215           -4.5125        265.368183     -6179.336982
6.325           -4.5125        280.809553     -6053.49959
6.435           -4.5125        296.962731     -5920.25935
6.545           -4.5125        314.11754      -5779.116844
6.655           -4.5125        332.407573     -5629.649879
6.765           -4.5125        351.461276     -5471.708598
6.875           -4.5125        371.25935      -5304.953381
6.985           -4.5125        391.771395     -5129.053925
7.095           -4.5125        412.953999     -4943.694034
7.205           -4.5125        434.748629     -4748.577175
7.315           -4.5125        456.661423     -4543.158098
7.425           -4.5125        478.624479     -4327.230523
7.535           -4.5125        500.875356     -4100.841102
7.645           -4.5125        523.284949     -3863.861377
7.755           -4.5125        545.700357     -3616.228841
7.865           -4.5125        567.942595     -3357.959364
7.975           -4.5125        590.525167     -3088.687757
8.085           -4.5125        612.439846     -2809.093912
8.195           -4.5125        633.324348     -2519.565707
8.305           -4.5125        652.819828     -2220.60734
8.415           -4.5125        670.526759     -1912.885435
8.525           -4.5125        686.006895     -1597.246893
8.635           -4.5125        698.781936     -1274.740277
8.745           -4.5125        707.900007     -946.528243
8.855           -4.5125        713.557966     -614.402016
8.965           -4.5125        715.310999     -280.116053
9.075           -4.5125        712.735552     54.347231
9.185           -4.5125        705.449108     386.789676
9.295           -4.5125        692.764311     714.731436
9.405           -4.5125        674.019819     1035.414686
9.515           -4.5125        649.439585     1346.206798
9.625           -4.5125        619.090051     1644.420764
9.735           -4.5125        583.228262     1927.433499
9.845           -4.5125        542.300928     2192.774197
9.955           -4.5125        496.932688     2438.215705
10.065          -4.5125        448.941907     2661.104764
10.175          -4.5125        399.041961     2860.14739
10.285          -4.5125        347.42608      3034.754284
10.395          -4.5125        294.632741     3184.286315
10.505          -4.5125        241.285974     3308.47184
10.615          -4.5125        188.154534     3407.686241
10.725          -4.5125        133.7898       3480.745448
10.835          -4.5125        79.961302      3529.168301
10.945          -4.5125        25.999438      3552.194885
0.055           -4.4175        0.689045       -8061.962475
0.165           -4.4175        2.059595       -8061.46498
0.275           -4.4175        3.493294       -8060.602063
0.385           -4.4175        4.865464       -8059.265118
0.495           -4.4175        6.304055       -8057.435138
0.605           -4.4175        7.767493       -8055.139951
0.715           -4.4175        9.268667       -8052.369569
0.825           -4.4175        10.807006      -8049.111505
0.935           -4.4175        12.388545      -8045.354785
1.045           -4.4175        14.019317      -8041.085601
1.155           -4.4175        15.680058      -8036.269225
1.265           -4.4175        17.387566      -8030.894063
1.375           -4.4175        19.160868      -8024.94854
1.485           -4.4175        21.006605      -8018.409813
1.595           -4.4175        22.931741      -8011.252733
1.705           -4.4175        24.958209      -8003.442588
1.815           -4.4175        27.124974      -7994.93359
1.925           -4.4175        29.40079       -7985.713112
2.035           -4.4175        31.794767      -7975.745471
2.145           -4.4175        34.316479      -7964.992131
2.255           -4.4175        36.976001      -7953.411554
2.365           -4.4175        39.783944      -7940.959046
2.475           -4.4175        42.744674      -7927.580796
2.585           -4.4175        45.811817      -7913.180539
2.695           -4.4175        49.05383       -7897.746269
2.805           -4.4175        52.48277       -7881.218091
2.915           -4.4175        56.111338      -7863.531956
3.025           -4.4175        59.952913      -7844.619431
3.135           -4.4175        64.110372      -7824.365843
3.245           -4.4175        68.55417       -7802.71306
3.355           -4.4175        73.273244      -7779.591473
3.465           -4.4175        78.285887      -7754.911685
3.575           -4.4175        83.611382      -7728.578522
3.685           -4.4175        89.270045      -7700.490739
3.795           -4.4175        95.283264      -7670.540693
3.905           -4.4175        101.58728      -7638.544336
4.015           -4.4175        108.217793     -7604.392466
4.125           -4.4175        115.252184     -7567.996783
4.235           -4.4175        122.714229     -7529.219042
4.345           -4.4175        130.62874      -7487.912758
4.455           -4.4175        139.082732     -7443.895207
4.565           -4.4175        148.247353     -7396.929736
4.675           -4.4175        157.980385     -7346.925724
4.785           -4.4175        168.313835     -7293.698356
4.895           -4.4175        179.280771     -7237.052657
5.005           -4.4175        190.915239     -7176.783155
5.115           -4.4175        203.25214      -7112.67357
5.225           -4.4175        216.296217     -7044.470054
5.335           -4.4175        229.825286     -6971.738298
5.445           -4.4175        244.123168     -6894.419528
5.555           -4.4175        259.222882     -6812.249899
5.665           -4.4175        275.15706      -6724.953993
5.775           -4.4175        291.95758      -6632.244935
5.885           -4.4175        310.046824     -6533.632838
5.995           -4.4175        329.236386     -6428.909053
6.105           -4.4175        349.438803     -6317.812429
6.215           -4.4175        370.67936      -6200.012444
6.325           -4.4175        392.978722     -6075.170313
6.435           -4.4175        416.351777     -5942.940372
6.545           -4.4175        440.806305     -5802.971792
6.655           -4.4175        465.964065     -5654.632967
6.765           -4.4175        491.909652     -5497.652395
6.875           -4.4175        518.837907     -5331.839269
6.985           -4.4175        546.71155      -5156.852174
7.095           -4.4175        575.477933     -4972.362066
7.205           -4.4175        605.30722      -4777.925998
7.315           -4.4175        636.470614     -4573.044453
7.425           -4.4175        668.270025     -4357.774489
7.535           -4.4175        700.544483     -4131.905398
7.645           -4.4175        733.097852     -3895.277691
7.755           -4.4175        765.694634     -3647.794149
7.865           -4.4175        798.055711     -3389.432247
7.975           -4.4175        829.707375     -3120.174257
8.085           -4.4175        859.695852     -2839.893819
8.195           -4.4175        888.340155     -2549.341842
8.305           -4.4175        915.187448     -2248.982743
8.415           -4.4175        939.735812     -1939.443823
8.525           -4.4175        961.436295     -1621.534635
8.635           -4.4175        980.012485     -1295.882024
8.745           -4.4175        994.178193     -964.188079
8.855           -4.4175        1003.224264    -627.987532
8.965           -4.4175        1006.423997    -289.039557
9.075           -4.4175        1003.07661     50.642611
9.185           -4.4175        992.543193     388.798266
9.295           -4.4175        974.289018     722.939021
9.405           -4.4175        948.051588     1049.999241
9.515           -4.4175        914.207614     1366.976272
9.625           -4.4175        872.679313     1671.268133
9.735           -4.4175        823.787823     1960.073478
9.845           -4.4175        768.089832     2230.744463
9.955           -4.4175        705.745861     2480.609799
10.065          -4.4175        636.849808     2707.105155
10.175          -4.4175        564.004613     2909.281157
10.285          -4.4175        488.512092     3086.179492
10.395          -4.4175        411.49724      3237.271815
10.505          -4.4175        334.112019     3362.341356
10.615          -4.4175        257.624072     3460.956915
10.725          -4.4175        185.048776     3533.005338
10.835          -4.4175        109.666076     3581.342145
10.945          -4.4175        35.986825      3604.978247
0.055           -4.3225        0.884497       -8064.681564
0.165           -4.3225        2.657117       -8064.255898
0.275           -4.3225        4.500502       -8063.307906
0.385           -4.3225        6.274857       -8062.035956
0.495           -4.3225        8.044805       -8060.182734
0.605           -4.3225        9.947763       -8057.98819
0.715           -4.3225        11.841026      -8055.262315
0.825           -4.3225        13.768356      -8052.053565
0.935           -4.3225        15.744945      -8048.353787
1.045           -4.3225        17.80923       -8044.134875
1.155           -4.3225        19.958509      -8039.38636
1.265           -4.3225        22.187278      -8034.097103
1.375           -4.3225        24.504633      -8028.246733
1.485           -4.3225        26.919452      -8021.812945
1.595           -4.3225        29.441242      -8014.770987
1.705           -4.3225        32.079993      -8007.093774
1.815           -4.3225        34.838495      -7998.744701
1.925           -4.3225        37.693027      -7989.664991
2.035           -4.3225        40.692067      -7979.848824
2.145           -4.3225        43.846942      -7969.258155
2.255           -4.3225        47.169551      -7957.851968
2.365           -4.3225        50.677669      -7945.585119
2.475           -4.3225        54.458911      -7932.374225
2.585           -4.3225        58.458522      -7918.20072
2.695           -4.3225        62.69235       -7903.009484
2.805           -4.3225        67.17712       -7886.741504
2.915           -4.3225        71.930491      -7869.333671
3.025           -4.3225        76.971103      -7850.718542
3.135           -4.3225        82.318632      -7830.82411
3.245           -4.3225        87.934009      -7809.519327
3.355           -4.3225        93.853032      -7786.74007
3.465           -4.3225        100.130744     -7762.423421
3.575           -4.3225        106.789954     -7736.475228
3.685           -4.3225        113.854648     -7708.795299
3.795           -4.3225        121.447407     -7679.237745
3.905           -4.3225        129.592672     -7647.683285
4.015           -4.3225        138.248787     -7614.045423
4.125           -4.3225        147.447382     -7578.195259
4.235           -4.3225        157.2216       -7539.996044
4.345           -4.3225        167.606122     -7499.302809
4.455           -4.3225        178.637168     -7455.961979
4.565           -4.3225        190.326604     -7409.782582
4.675           -4.3225        202.552331     -7360.468713
4.785           -4.3225        215.513163     -7307.967284
4.895           -4.3225        229.248375     -7252.08441
5.005           -4.3225        243.798364     -7192.615626
5.115           -4.3225        259.229889     -7129.340622
5.225           -4.3225        275.915544     -7061.870788
5.335           -4.3225        293.59074      -6990.111716
5.445           -4.3225        312.302235     -6913.811555
5.555           -4.3225        332.096825     -6832.70651
5.665           -4.3225        353.020908     -6746.520778
5.775           -4.3225        375.119955     -6654.966565
5.885           -4.3225        398.437885     -6557.744228
5.995           -4.3225        422.733064     -6454.304125
6.105           -4.3225        448.134429     -6344.420791
6.215           -4.3225        474.811459     -6227.8635
6.325           -4.3225        502.789504     -6104.288987
6.435           -4.3225        532.087456     -5973.346068
6.545           -4.3225        563.137103     -5834.479249
6.655           -4.3225        595.845021     -5687.351329
6.765           -4.3225        629.934863     -5531.73158
6.875           -4.3225        665.378324     -5367.25605
6.985           -4.3225        702.128581     -5193.565763
7.095           -4.3225        740.117078     -5010.310996
7.205           -4.3225        779.249949     -4817.156317
7.315           -4.3225        819.226864     -4613.659844
7.425           -4.3225        859.423423     -4399.233541
7.535           -4.3225        900.229001     -4174.044194
7.645           -4.3225        941.413391     -3937.89812
7.755           -4.3225        982.701635     -3690.6602
7.865           -4.3225        1023.961836    -3432.144025
7.975           -4.3225        1065.244949    -3162.059492
8.085           -4.3225        1105.389935    -2880.954879
8.195           -4.3225        1143.843429    -2589.086634
8.305           -4.3225        1179.977243    -2286.852823
8.415           -4.3225        1213.086887    -1974.814234
8.525           -4.3225        1242.392795    -1653.716758
8.635           -4.3225        1267.045248    -1324.514511
8.745           -4.3225        1285.372235    -988.204068
8.855           -4.3225        1297.373608    -646.714356
8.965           -4.3225        1302.173767    -301.749686
9.075           -4.3225        1298.915251    44.647053
9.185           -4.3225        1286.807744    390.153044
9.295           -4.3225        1264.837736    732.383054
9.405           -4.3225        1231.680277    1067.818918
9.515           -4.3225        1187.642096    1393.6007
9.625           -4.3225        1132.776291    1706.59708
9.735           -4.3225        1067.508064    2003.702851
9.845           -4.3225        992.659013     2281.962236
9.955           -4.3225        909.434221     2538.707158
10.065          -4.3225        820.026686     2771.118571
10.175          -4.3225        726.847974     2977.193367
10.285          -4.3225        630.656987     3156.727288
10.395          -4.3225        532.910023     3309.274326
10.505          -4.3225        434.451212     3434.801431
10.615          -4.3225        334.246891     3532.914518
10.725          -4.3225        236.081993     3607.759641
10.835          -4.3225        140.839382     3653.537358
10.945          -4.3225        46.441103      3677.758004
0.055           -4.2275        1.078783       -8068.075995
0.165           -4.2275        3.239967       -8067.661093
0.275           -4.2275        5.352598       -8066.710384
0.385           -4.2275        7.579866       -8065.484608
0.495           -4.2275        9.789603       -8063.743088
0.605           -4.2275        12.079854      -8061.506393