% Model:              PurmonSmall_traj-grid.mph
% Version:            COMSOL 4.3.0.151
% Date:               Mar 5 2014, 16:09
% Dimension:          2
% Nodes:              10000
% Expressions:        2
% Description:        , 
% Length unit:        mm
% r             z              es.Er (V/m) @ TopV=9 es.Ez (V/m) @ TopV=9
0.055           -4.7025        -0.232902      -52282.359195
0.165           -4.7025        -0.572238      -52283.14188
0.275           -4.7025        -0.946463      -52284.724721
0.385           -4.7025        -1.286243      -52287.121751
0.495           -4.7025        -1.614853      -52290.337478
0.605           -4.7025        -1.945294      -52294.376082
0.715           -4.7025        -2.280759      -52299.251799
0.825           -4.7025        -2.623415      -52304.982608
0.935           -4.7025        -2.974048      -52311.590695
1.045           -4.7025        -3.349521      -52319.111479
1.155           -4.7025        -3.79586       -52327.601235
1.265           -4.7025        -4.260356      -52337.060491
1.375           -4.7025        -4.745267      -52347.52673
1.485           -4.7025        -5.252958      -52359.041417
1.595           -4.7025        -5.785922      -52371.650185
1.705           -4.7025        -6.346793      -52385.403026
1.815           -4.7025        -6.857097      -52400.406026
1.925           -4.7025        -7.375595      -52416.683457
2.035           -4.7025        -7.91844       -52434.291405
2.145           -4.7025        -8.487313      -52453.30073
2.255           -4.7025        -9.083973      -52473.788035
2.365           -4.7025        -9.710255      -52495.836007
2.475           -4.7025        -10.467127     -52519.592929
2.585           -4.7025        -11.312209     -52545.127922
2.695           -4.7025        -12.213307     -52572.523972
2.805           -4.7025        -13.175123     -52601.893541
2.915           -4.7025        -14.202706     -52633.357454
3.025           -4.7025        -15.301483     -52667.045451
3.135           -4.7025        -16.41064      -52703.13912
3.245           -4.7025        -17.459438     -52741.837731
3.355           -4.7025        -18.568528     -52783.228385
3.465           -4.7025        -19.741607     -52827.48514
3.575           -4.7025        -20.982568     -52874.794635
3.685           -4.7025        -22.295508     -52925.356964
3.795           -4.7025        -23.749863     -52979.425668
3.905           -4.7025        -25.538531     -53037.341532
4.015           -4.7025        -27.460102     -53099.228957
4.125           -4.7025        -29.525304     -53165.355328
4.235           -4.7025        -31.745737     -53236.007285
4.345           -4.7025        -34.133942     -53311.492094
4.455           -4.7025        -36.703487     -53392.139123
4.565           -4.7025        -39.084059     -53478.547449
4.675           -4.7025        -41.545841     -53570.933943
4.785           -4.7025        -44.159481     -53669.669252
4.895           -4.7025        -46.934251     -53775.194038
5.005           -4.7025        -49.879922     -53887.980776
5.115           -4.7025        -53.00679      -54008.535984
5.225           -4.7025        -56.839621     -54137.708278
5.335           -4.7025        -61.163148     -54275.943203
5.445           -4.7025        -65.824404     -54423.767503
5.555           -4.7025        -70.850425     -54581.857706
5.665           -4.7025        -76.270229     -54750.938472
5.775           -4.7025        -82.114881     -54931.785652
5.885           -4.7025        -88.050021     -55125.463338
5.995           -4.7025        -93.707773     -55333.120652
6.105           -4.7025        -99.720692     -55555.322559
6.215           -4.7025        -106.108658    -55793.093232
6.325           -4.7025        -112.892135    -56047.52414
6.435           -4.7025        -120.092121    -56319.776532
6.545           -4.7025        -128.100978    -56611.305845
6.655           -4.7025        -137.9551      -56924.017003
6.765           -4.7025        -148.547246    -57258.622256
6.875           -4.7025        -159.919076    -57616.586568
6.985           -4.7025        -172.109733    -57999.444248
7.095           -4.7025        -185.153984    -58408.793782
7.205           -4.7025        -199.079807    -58846.289894
7.315           -4.7025        -211.850267    -59314.937172
7.425           -4.7025        -224.892546    -59815.558993
7.535           -4.7025        -238.537778    -60349.667763
7.645           -4.7025        -252.770025    -60918.965511
7.755           -4.7025        -267.563534    -61525.088182
7.865           -4.7025        -282.881393    -62169.559162
7.975           -4.7025        -300.905769    -62855.088701
8.085           -4.7025        -320.349405    -63582.066673
8.195           -4.7025        -340.095421    -64350.673159
8.305           -4.7025        -359.861691    -65161.191628
8.415           -4.7025        -379.289176    -66013.352923
8.525           -4.7025        -397.934667    -66906.212451
8.635           -4.7025        -414.626989    -67838.391075
8.745           -4.7025        -427.682071    -68807.783404
8.855           -4.7025        -439.013088    -69809.04227
8.965           -4.7025        -448.241977    -70836.982391
9.075           -4.7025        -454.982545    -71885.137699
9.185           -4.7025        -458.849143    -72945.737576
9.295           -4.7025        -458.638915    -74009.286344
9.405           -4.7025        -453.631265    -75065.577096
9.515           -4.7025        -442.701137    -76102.795718
9.625           -4.7025        -425.633397    -77109.227231
9.735           -4.7025        -402.516743    -78073.088463
9.845           -4.7025        -373.770856    -78983.024327
9.955           -4.7025        -340.135408    -79828.628159
10.065          -4.7025        -308.04843     -80597.446002
10.175          -4.7025        -274.7247      -81284.998795
10.285          -4.7025        -240.289869    -81886.915782
10.395          -4.7025        -205.208842    -82400.589167
10.505          -4.7025        -169.921664    -82825.269059
10.615          -4.7025        -134.792347    -83161.634422
10.725          -4.7025        -96.645361     -83409.318646
10.835          -4.7025        -57.844037     -83571.699734
10.945          -4.7025        -21.855362     -83651.938537
0.055           -4.6075        -0.517176      -52281.223402
0.165           -4.6075        -1.590413      -52282.013465
0.275           -4.6075        -2.514497      -52283.553482
0.385           -4.6075        -3.566243      -52285.93168
0.495           -4.6075        -4.639714      -52289.131287
0.605           -4.6075        -5.741983      -52293.152653
0.715           -4.6075        -6.871111      -52298.007806
0.825           -4.6075        -8.031455      -52303.714743
0.935           -4.6075        -9.226361      -52310.295554
1.045           -4.6075        -10.46041      -52317.775828
1.155           -4.6075        -11.669549     -52326.230254
1.265           -4.6075        -12.919699     -52335.652649
1.375           -4.6075        -14.218391     -52346.078275
1.485           -4.6075        -15.57044      -52357.548446
1.595           -4.6075        -16.980872     -52370.108629
1.705           -4.6075        -18.462166     -52383.812936
1.815           -4.6075        -20.107296     -52398.76443
1.925           -4.6075        -21.839334     -52414.975666
2.035           -4.6075        -23.665979     -52432.511776
2.145           -4.6075        -25.59539      -52451.443298
2.255           -4.6075        -27.636229     -52471.846486
2.365           -4.6075        -29.797704     -52493.803649
2.475           -4.6075        -32.031396     -52517.442896
2.585           -4.6075        -34.323213     -52542.877628
2.695           -4.6075        -36.748567     -52570.166317
2.805           -4.6075        -39.317053     -52599.420999
2.915           -4.6075        -42.038858     -52630.762048
3.025           -4.6075        -44.924807     -52664.318716
3.135           -4.6075        -48.104261     -52700.29521
3.245           -4.6075        -51.581269     -52738.834627
3.355           -4.6075        -55.291475     -52780.054403
3.465           -4.6075        -59.252611     -52824.127781
3.575           -4.6075        -63.483713     -52871.24052
3.685           -4.6075        -68.005217     -52921.591759
3.795           -4.6075        -72.83908      -52975.394955
3.905           -4.6075        -77.731324     -53033.069778
4.015           -4.6075        -82.929938     -53094.709684
4.125           -4.6075        -88.468869     -53160.571773
4.235           -4.6075        -94.371674     -53230.941558
4.345           -4.6075        -100.663504    -53306.125102
4.455           -4.6075        -107.407255    -53386.471461
4.565           -4.6075        -115.045691    -53472.556835
4.675           -4.6075        -123.233867    -53564.553448
4.785           -4.6075        -132.013497    -53662.870312
4.895           -4.6075        -141.429462    -53767.945991
5.005           -4.6075        -151.530013    -53880.250711
5.115           -4.6075        -162.367017    -54000.288597
5.225           -4.6075        -173.696083    -54128.80571
5.335           -4.6075        -185.452122    -54266.472714
5.445           -4.6075        -198.012619    -54413.69055
5.555           -4.6075        -211.432795    -54571.133332
5.665           -4.6075        -225.77124     -54739.523228
5.775           -4.6075        -241.090008    -54919.633525
5.885           -4.6075        -258.100152    -55112.648326
5.995           -4.6075        -276.820282    -55319.419723
6.105           -4.6075        -296.917294    -55540.674324
6.215           -4.6075        -318.48761     -55777.43332
6.325           -4.6075        -341.631885    -56030.785473
6.435           -4.6075        -366.454369    -56301.889761
6.545           -4.6075        -393.061973    -56591.977603
6.655           -4.6075        -420.020688    -56903.412178
6.765           -4.6075        -448.685082    -57236.720553
6.875           -4.6075        -479.193526    -57593.326768
6.985           -4.6075        -511.625153    -57974.7686
7.095           -4.6075        -546.051783    -58382.649966
7.205           -4.6075        -582.742826    -58818.754474
7.315           -4.6075        -623.909436    -59285.99729
7.425           -4.6075        -667.504509    -59784.979539
7.535           -4.6075        -713.515782    -60317.457166
7.645           -4.6075        -761.880683    -60885.164954
7.755           -4.6075        -812.472437    -61489.780448
7.865           -4.6075        -865.083891    -62132.878852
7.975           -4.6075        -918.050487    -62816.752629
8.085           -4.6075        -970.42998     -63542.882346
8.195           -4.6075        -1023.428867   -64310.968631
8.305           -4.6075        -1076.456467   -65121.379258
8.415           -4.6075        -1128.790066   -65973.937939
8.525           -4.6075        -1179.564752   -66867.79964
8.635           -4.6075        -1229.14705    -67802.291537
8.745           -4.6075        -1275.542054   -68774.436345
8.855           -4.6075        -1315.728034   -69779.477066
8.965           -4.6075        -1347.868917   -70812.307964
9.075           -4.6075        -1370.040109   -71866.498305
9.185           -4.6075        -1380.323337   -72934.251015
9.295           -4.6075        -1376.931706   -74006.428186
9.405           -4.6075        -1359.617767   -75071.094791
9.515           -4.6075        -1327.517212   -76117.419417
9.625           -4.6075        -1280.870824   -77133.087672
9.735           -4.6075        -1219.893047   -78105.955651
9.845           -4.6075        -1145.364463   -79024.287493
9.955           -4.6075        -1057.755244   -79876.801357
10.065          -4.6075        -953.997614    -80651.520847
10.175          -4.6075        -841.755142    -81343.658601
10.285          -4.6075        -724.124745    -81948.549995
10.395          -4.6075        -604.336537    -82463.735029
10.505          -4.6075        -484.707817    -82888.744995
10.615          -4.6075        -367.525528    -83224.488595
10.725          -4.6075        -258.904673    -83470.170058
10.835          -4.6075        -155.030624    -83630.056609
10.945          -4.6075        -53.970504     -83707.394263
0.055           -4.5125        -0.853077      -52278.832522
0.165           -4.5125        -2.563455      -52279.614382
0.275           -4.5125        -4.30671       -52281.176076
0.385           -4.5125        -6.094329      -52283.518301
0.495           -4.5125        -7.834844      -52286.691257
0.605           -4.5125        -9.596403      -52290.683777
0.715           -4.5125        -11.395215     -52295.502343
0.825           -4.5125        -13.237049     -52301.16606
0.935           -4.5125        -15.127823     -52307.696634
1.045           -4.5125        -17.108302     -52315.138049
1.155           -4.5125        -19.199925     -52323.526205
1.265           -4.5125        -21.371507     -52332.872094
1.375           -4.5125        -23.632157     -52343.212753
1.485           -4.5125        -25.991352     -52354.589112
1.595           -4.5125        -28.459051     -52367.046221
1.705           -4.5125        -31.045731     -52380.633446
1.815           -4.5125        -33.713623     -52395.439502
1.925           -4.5125        -36.474493     -52411.523859
2.035           -4.5125        -39.378266     -52428.923096
2.145           -4.5125        -42.436436     -52447.707229
2.255           -4.5125        -45.661156     -52467.951948
2.365           -4.5125        -49.065282     -52489.738956
2.475           -4.5125        -52.795277     -52513.224982
2.585           -4.5125        -56.763303     -52538.451478
2.695           -4.5125        -60.97594      -52565.516024
2.805           -4.5125        -65.452101     -52594.529626
2.915           -4.5125        -70.211984     -52625.611538
3.025           -4.5125        -75.277169     -52658.889807
3.135           -4.5125        -80.664164     -52694.506452
3.245           -4.5125        -86.221794     -52732.740191
3.355           -4.5125        -92.1322       -52773.633449
3.465           -4.5125        -98.420445     -52817.358132
3.575           -4.5125        -105.113277    -52864.098566
3.685           -4.5125        -112.239257    -52914.052356
3.795           -4.5125        -119.957646    -52967.496645
3.905           -4.5125        -128.384868    -53024.700725
4.015           -4.5125        -137.393781    -53085.82569
4.125           -4.5125        -147.027703    -53151.135322
4.235           -4.5125        -157.333175    -53220.912386
4.345           -4.5125        -168.360207    -53295.459986
4.455           -4.5125        -180.16254     -53375.103021
4.565           -4.5125        -192.575668    -53460.355917
4.675           -4.5125        -205.646102    -53551.604845
4.785           -4.5125        -219.609121    -53649.123064
4.895           -4.5125        -234.528001    -53753.345701
5.005           -4.5125        -250.470395    -53864.739331
5.115           -4.5125        -267.508612    -53983.804219
5.225           -4.5125        -286.408975    -54111.424427
5.335           -4.5125        -306.736838    -54247.914029
5.445           -4.5125        -328.539022    -54393.868508
5.555           -4.5125        -351.924551    -54549.956068
5.665           -4.5125        -377.009838    -54716.892727
5.775           -4.5125        -403.918921    -54895.44544
5.885           -4.5125        -432.742208    -55086.465335
5.995           -4.5125        -462.688126    -55291.531643
6.105           -4.5125        -494.717453    -55510.971189
6.215           -4.5125        -528.966613    -55745.800288
6.325           -4.5125        -565.577542    -55997.10324
6.435           -4.5125        -604.696945    -56266.035178
6.545           -4.5125        -647.204158    -56554.195477
6.655           -4.5125        -693.68558     -56863.112145
6.765           -4.5125        -743.404978    -57193.716166
6.875           -4.5125        -796.533163    -57547.477931
6.985           -4.5125        -853.232419    -57925.942833
7.095           -4.5125        -913.650435    -58330.727635
7.205           -4.5125        -977.9126      -58763.514385
7.315           -4.5125        -1044.874725   -59226.934561
7.425           -4.5125        -1114.555543   -59722.769257
7.535           -4.5125        -1187.896589   -60252.116064
7.645           -4.5125        -1264.811751   -60816.764007
7.755           -4.5125        -1345.132078   -61418.457992
7.865           -4.5125        -1428.58688    -62058.855524
7.975           -4.5125        -1517.925015   -62741.265352
8.085           -4.5125        -1609.732089   -63465.457862
8.195           -4.5125        -1702.945803   -64232.304016
8.305           -4.5125        -1796.437969   -65042.3743
8.415           -4.5125        -1888.790098   -65895.719723
8.525           -4.5125        -1978.264117   -66791.741692
8.635           -4.5125        -2062.708295   -67729.077135
8.745           -4.5125        -2136.715583   -68706.728897
8.855           -4.5125        -2201.174579   -69719.167457
8.965           -4.5125        -2253.45184    -70761.420765
9.075           -4.5125        -2290.796436   -71827.124038
9.185           -4.5125        -2310.452823   -72908.454178
9.295           -4.5125        -2309.122803   -73996.293551
9.405           -4.5125        -2282.645617   -75079.189602
9.515           -4.5125        -2229.457235   -76144.643572
9.625           -4.5125        -2148.644225   -77179.872873
9.735           -4.5125        -2040.497591   -78171.843543
9.845           -4.5125        -1906.642713   -79107.86764
9.955           -4.5125        -1750.055037   -79976.263165
10.065          -4.5125        -1578.632549   -80764.223833
10.175          -4.5125        -1397.248725   -81464.755952
10.285          -4.5125        -1208.609651   -82074.692629
10.395          -4.5125        -1016.435792   -82591.764376
10.505          -4.5125        -824.523116    -83016.049557
10.615          -4.5125        -636.84844     -83350.780499
10.725          -4.5125        -448.900441    -83594.121152
10.835          -4.5125        -266.663781    -83753.883178
10.945          -4.5125        -86.394442     -83829.172357
0.055           -4.4175        -1.182284      -52275.331932
0.165           -4.4175        -3.534013      -52276.185207
0.275           -4.4175        -5.99435       -52277.6654
0.385           -4.4175        -8.349718      -52279.958772
0.495           -4.4175        -10.819772     -52283.098235
0.605           -4.4175        -13.333512     -52287.036278
0.715           -4.4175        -15.913297     -52291.790389
0.825           -4.4175        -18.558448     -52297.382418
0.935           -4.4175        -21.279654     -52303.831708
1.045           -4.4175        -24.087645     -52311.162567
1.155           -4.4175        -26.949744     -52319.435469
1.265           -4.4175        -29.895096     -52328.67126
1.375           -4.4175        -32.956944     -52338.890719
1.485           -4.4175        -36.147259     -52350.134251
1.595           -4.4175        -39.478649     -52362.446409
1.705           -4.4175        -42.989645     -52375.888343
1.815           -4.4175        -46.749128     -52390.540939
1.925           -4.4175        -50.703712     -52406.427805
2.035           -4.4175        -54.870279     -52423.612713
2.145           -4.4175        -59.266692     -52442.164723
2.255           -4.4175        -63.911883     -52462.158485
2.365           -4.4175        -68.825945     -52483.674575
2.475           -4.4175        -74.018593     -52506.809914
2.585           -4.4175        -79.41033      -52531.737338
2.695           -4.4175        -85.122935     -52558.481635
2.805           -4.4175        -91.18013      -52587.152552
2.915           -4.4175        -97.607159     -52617.867988
3.025           -4.4175        -104.430911    -52650.754539
3.135           -4.4175        -111.838371    -52686.021072
3.245           -4.4175        -119.783558    -52723.779941
3.355           -4.4175        -128.251397    -52764.163488
3.465           -4.4175        -137.280731    -52807.341187
3.575           -4.4175        -146.913172    -52853.494736
3.685           -4.4175        -157.193324    -52902.818903
3.795           -4.4175        -168.169012    -52955.522439
3.905           -4.4175        -179.736639    -53011.957338
4.015           -4.4175        -191.968576    -53072.344153
4.125           -4.4175        -205.018857    -53136.865655
4.235           -4.4175        -218.945775    -53205.801251
4.345           -4.4175        -233.811735    -53279.450459
4.455           -4.4175        -249.79719     -53358.183181
4.565           -4.4175        -267.261731    -53442.485119
4.675           -4.4175        -285.95908     -53532.571224
4.785           -4.4175        -305.980753    -53628.841406
4.895           -4.4175        -327.425039    -53731.724504
5.005           -4.4175        -350.397465    -53841.680376
5.115           -4.4175        -375.011283    -53959.202116
5.225           -4.4175        -401.333285    -54084.870035
5.335           -4.4175        -428.969014    -54219.665455
5.445           -4.4175        -458.538471    -54363.810563
5.555           -4.4175        -490.178622    -54517.966284
5.665           -4.4175        -524.035234    -54682.841093
5.775           -4.4175        -560.263155    -54859.194177
5.885           -4.4175        -599.891806    -55048.230792
5.995           -4.4175        -642.683288    -55250.650728
6.105           -4.4175        -688.567654    -55467.259413
6.215           -4.4175        -737.758669    -55699.063863
6.325           -4.4175        -790.479854    -55947.139806
6.435           -4.4175        -846.963359    -56212.634977
6.545           -4.4175        -907.448272    -56496.772151
6.655           -4.4175        -971.304487    -56801.569982
6.765           -4.4175        -1038.887402   -57128.280078
6.875           -4.4175        -1110.951155   -57477.958672
6.985           -4.4175        -1187.70274    -57852.160038
7.095           -4.4175        -1269.332484   -58252.515454
7.205           -4.4175        -1356.681313   -58681.041588
7.315           -4.4175        -1451.296499   -59140.243094
7.425           -4.4175        -1551.48987    -59631.088938
7.535           -4.4175        -1657.264764   -60155.449977
7.645           -4.4175        -1768.522202   -60715.209384
7.755           -4.4175        -1885.032235   -61312.232557
7.865           -4.4175        -2006.400317   -61948.328235
7.975           -4.4175        -2131.603888   -62625.498735
8.085           -4.4175        -2257.314446   -63346.88404
8.195           -4.4175        -2384.995457   -64111.869219
8.305           -4.4175        -2513.235367   -64921.280429
8.415           -4.4175        -2640.274125   -65775.453705
8.525           -4.4175        -2763.969732   -66674.100246
8.635           -4.4175        -2884.314975   -67618.116198
8.745           -4.4175        -2995.214939   -68603.676316
8.855           -4.4175        -3092.494743   -69627.184408
8.965           -4.4175        -3171.923093   -70683.955417
9.075           -4.4175        -3228.990728   -71767.784078
9.185           -4.4175        -3259.105086   -72870.820309
9.295           -4.4175        -3257.859781   -73983.512682
9.405           -4.4175        -3220.478494   -75093.798526
9.515           -4.4175        -3147.106886   -76187.634418
9.625           -4.4175        -3036.641595   -77251.825919
9.735           -4.4175        -2889.397393   -78272.160923
9.845           -4.4175        -2707.321051   -79234.676521
9.955           -4.4175        -2491.63247    -80125.454277
10.065          -4.4175        -2244.086409   -80931.224285
10.175          -4.4175        -1977.163548   -81645.668274
10.285          -4.4175        -1698.901486   -82264.087822
10.395          -4.4175        -1416.660164   -82784.787916
10.505          -4.4175        -1137.392184   -83208.535752
10.615          -4.4175        -867.165704    -83536.864848
10.725          -4.4175        -616.943113    -83772.223181
10.835          -4.4175        -362.998645    -83928.717686
10.945          -4.4175        -118.783879    -84003.955938
0.055           -4.3225        -1.517464      -52270.66671
0.165           -4.3225        -4.558723      -52271.39653
0.275           -4.3225        -7.72176       -52273.022067
0.385           -4.3225        -10.766995     -52275.203139
0.495           -4.3225        -13.805912     -52278.381161
0.605           -4.3225        -17.07405      -52282.14517
0.715           -4.3225        -20.327209     -52286.821139
0.825           -4.3225        -23.640738     -52292.326419
0.935           -4.3225        -27.041084     -52298.675476
1.045           -4.3225        -30.594721     -52305.917002
1.155           -4.3225        -34.297828     -52314.069853
1.265           -4.3225        -38.14134      -52323.153874
1.375           -4.3225        -42.141556     -52333.204966
1.485           -4.3225        -46.314486     -52344.262506
1.595           -4.3225        -50.677335     -52356.370245
1.705           -4.3225        -55.24827      -52369.57615
1.815           -4.3225        -60.033504     -52383.94475
1.925           -4.3225        -64.992612     -52399.579979
2.035           -4.3225        -70.210837     -52416.493436
2.145           -4.3225        -75.70929      -52434.753145
2.255           -4.3225        -81.510313     -52454.432642
2.365           -4.3225        -87.646179     -52475.612553
2.475           -4.3225        -94.274197     -52498.441824
2.585           -4.3225        -101.300527    -52522.956239
2.695           -4.3225        -108.755936    -52549.255991
2.805           -4.3225        -116.67322     -52577.44878
2.915           -4.3225        -125.087364    -52607.650293
3.025           -4.3225        -134.035719    -52639.984733
3.135           -4.3225        -143.558183    -52674.585381
3.245           -4.3225        -153.593605    -52711.691896
3.355           -4.3225        -164.20817     -52751.42809
3.465           -4.3225        -175.507964    -52793.914487
3.575           -4.3225        -187.542111    -52839.329949
3.685           -4.3225        -200.363122    -52887.866206
3.795           -4.3225        -214.202976    -52939.796576
3.905           -4.3225        -229.127027    -52995.357698
4.015           -4.3225        -245.071328    -53054.723564
4.125           -4.3225        -262.110998    -53118.14976
4.235           -4.3225        -280.326676    -53185.91024
4.345           -4.3225        -299.804939    -53258.29865
4.455           -4.3225        -320.638747    -53335.629734
4.565           -4.3225        -342.887907    -53418.292112
4.675           -4.3225        -366.344588    -53506.896169
4.785           -4.3225        -391.419036    -53601.583251
4.895           -4.3225        -418.227511    -53702.775357
5.005           -4.3225        -446.894509    -53810.925065
5.115           -4.3225        -477.589773    -53926.515349
5.225           -4.3225        -511.163382    -54050.401755
5.335           -4.3225        -547.146162    -54182.861844
5.445           -4.3225        -585.715673    -54324.50069
5.555           -4.3225        -627.061847    -54475.967313
5.665           -4.3225        -671.387557    -54637.957761
5.775           -4.3225        -718.909114    -54811.218354
5.885           -4.3225        -769.856661    -54996.549092
5.995           -4.3225        -823.925711    -55195.33317
6.105           -4.3225        -881.461779    -55408.333233
6.215           -4.3225        -943.039958    -55636.298127
6.325           -4.3225        -1008.925998   -55880.293898
6.435           -4.3225        -1079.395776   -56141.459634
6.545           -4.3225        -1155.737153   -56421.403228
6.655           -4.3225        -1238.23339    -56721.502892
6.765           -4.3225        -1326.473864   -57042.80022
6.875           -4.3225        -1420.772855   -57386.774256
6.985           -4.3225        -1521.434367   -57754.991042
7.095           -4.3225        -1628.742755   -58149.103345
7.205           -4.3225        -1742.950756   -58570.848605
7.315           -4.3225        -1863.943193   -59022.367917
7.425           -4.3225        -1990.196174   -59506.777025
7.535           -4.3225        -2123.384305   -60024.693229
7.645           -4.3225        -2263.409832   -60578.101026
7.755           -4.3225        -2410.028459   -61168.993047
7.865           -4.3225        -2563.293642   -61799.558928
7.975           -4.3225        -2725.25437    -62473.192669
8.085           -4.3225        -2891.935076   -63190.186301
8.195           -4.3225        -3061.92215    -63952.089596
8.305           -4.3225        -3233.355143   -64760.138748
8.415           -4.3225        -3403.857195   -65615.138172
8.525           -4.3225        -3570.468914   -66517.318221
8.635           -4.3225        -3729.592776   -67466.167516
8.745           -4.3225        -3873.29693    -68461.796006
8.855           -4.3225        -3999.839482   -69499.533545
8.965           -4.3225        -4104.661117   -70574.811967
9.075           -4.3225        -4182.266158   -71681.653925
9.185           -4.3225        -4227.023807   -72812.253991
9.295           -4.3225        -4233.664044   -73958.737981
9.405           -4.3225        -4192.383831   -75105.880232
9.515           -4.3225        -4100.736838   -76240.115474
9.625           -4.3225        -3956.335339   -77346.036937
9.735           -4.3225        -3759.141049   -78407.433886
9.845           -4.3225        -3511.888121   -79408.119963
9.955           -4.3225        -3220.248336   -80332.960826
10.065          -4.3225        -2894.862698   -81166.819124
10.175          -4.3225        -2549.729263   -81898.568329
10.285          -4.3225        -2191.85263    -82526.416407
10.395          -4.3225        -1830.632159   -83049.210509