% Model:              PurmonSmall_traj-grid.mph
% Version:            COMSOL 4.3.0.151
% Date:               Mar 5 2014, 16:09
% Dimension:          2
% Nodes:              10000
% Expressions:        2
% Description:        , 
% Length unit:        mm
% r             z              es.Er (V/m) @ TopV=6 es.Ez (V/m) @ TopV=6
0.055           -4.7025        -0.153667      -42776.115281
0.165           -4.7025        -0.37756       -42776.63169
0.275           -4.7025        -0.62448       -42777.67604
0.385           -4.7025        -0.848682      -42779.257614
0.495           -4.7025        -1.065528      -42781.379411
0.605           -4.7025        -1.283599      -42784.044227
0.715           -4.7025        -1.505003      -42787.261503
0.825           -4.7025        -1.731176      -42791.043162
0.935           -4.7025        -1.962638      -42795.403912
1.045           -4.7025        -2.210535      -42800.367218
1.155           -4.7025        -2.505263      -42805.970323
1.265           -4.7025        -2.812038      -42812.21369
1.375           -4.7025        -3.132362      -42819.122195
1.485           -4.7025        -3.467812      -42826.723362
1.595           -4.7025        -3.820048      -42835.047495
1.705           -4.7025        -4.190828      -42844.127802
1.815           -4.7025        -4.528261      -42854.03463
1.925           -4.7025        -4.87122       -42864.784246
2.035           -4.7025        -5.23038       -42876.414004
2.145           -4.7025        -5.606869      -42888.971067
2.255           -4.7025        -6.001866      -42902.506447
2.365           -4.7025        -6.416605      -42917.075241
2.475           -4.7025        -6.918052      -42932.776092
2.585           -4.7025        -7.478165      -42949.655255
2.695           -4.7025        -8.075696      -42967.768282
2.805           -4.7025        -8.713824      -42987.190335
2.915           -4.7025        -9.395967      -43008.002235
3.025           -4.7025        -10.125809     -43030.290848
3.135           -4.7025        -10.862949     -43054.177683
3.245           -4.7025        -11.560482     -43079.796132
3.355           -4.7025        -12.298554     -43107.205293
3.465           -4.7025        -13.079696     -43136.522228
3.575           -4.7025        -13.906579     -43167.872624
3.685           -4.7025        -14.78202      -43201.391405
3.795           -4.7025        -15.752618     -43237.249563
3.905           -4.7025        -16.947333     -43275.676596
4.015           -4.7025        -18.232139     -43316.758186
4.125           -4.7025        -19.614498     -43360.675806
4.235           -4.7025        -21.102503     -43407.624345
4.345           -4.7025        -22.70494      -43457.813114
4.455           -4.7025        -24.431346     -43511.466921
4.565           -4.7025        -26.032693     -43568.9931
4.675           -4.7025        -27.691102     -43630.542473
4.785           -4.7025        -29.45407      -43696.370602
4.895           -4.7025        -31.328218     -43766.781122
5.005           -4.7025        -33.320549     -43842.100416
5.115           -4.7025        -35.438464     -43922.679315
5.225           -4.7025        -38.039861     -44009.102978
5.335           -4.7025        -40.979521     -44101.684402
5.445           -4.7025        -44.155526     -44200.794391
5.555           -4.7025        -47.587708     -44306.907362
5.665           -4.7025        -51.297482     -44420.533153
5.775           -4.7025        -55.307912     -44542.219473
5.885           -4.7025        -59.389419     -44672.716459
5.995           -4.7025        -63.291293     -44812.835429
6.105           -4.7025        -67.447588     -44962.991428
6.215           -4.7025        -71.873471     -45123.918786
6.325           -4.7025        -76.584647     -45296.40325
6.435           -4.7025        -81.597327     -45481.284299
6.545           -4.7025        -87.190504     -45679.614302
6.655           -4.7025        -94.091941     -45892.764298
6.765           -4.7025        -101.535272    -46121.282661
6.875           -4.7025        -109.554243    -46366.248795
6.985           -4.7025        -118.181273    -46628.798961
7.095           -4.7025        -127.446115    -46910.123294
7.205           -4.7025        -137.374096    -47211.460816
7.315           -4.7025        -146.5079      -47535.030689
7.425           -4.7025        -155.871828    -47881.497317
7.535           -4.7025        -165.70008     -48252.032362
7.645           -4.7025        -175.984318    -48647.950309
7.755           -4.7025        -186.709088    -49070.528579
7.865           -4.7025        -197.8508      -49520.973705
7.975           -4.7025        -211.020961    -50001.377024
8.085           -4.7025        -225.282892    -50512.139618
8.195           -4.7025        -239.832875    -51053.524518
8.305           -4.7025        -254.468422    -51625.872163
8.415           -4.7025        -268.928944    -52229.123875
8.525           -4.7025        -282.889879    -52862.728829
8.635           -4.7025        -295.463773    -53525.834218
8.745           -4.7025        -305.390817    -54217.045289
8.855           -4.7025        -314.092709    -54932.547273
8.965           -4.7025        -321.286       -55668.64453
9.075           -4.7025        -326.680171    -56420.680275
9.185           -4.7025        -329.984129    -57183.01449
9.295           -4.7025        -330.322739    -57948.721958
9.405           -4.7025        -327.210499    -58710.347599
9.515           -4.7025        -319.730535    -59459.142329
9.625           -4.7025        -307.710905    -60186.448434
9.735           -4.7025        -291.207646    -60883.538564
9.845           -4.7025        -270.526482    -61541.989361
9.955           -4.7025        -246.215407    -62154.074318
10.065          -4.7025        -222.966694    -62710.603699
10.175          -4.7025        -198.787017    -63208.217285
10.285          -4.7025        -173.793247    -63643.68044
10.395          -4.7025        -148.336496    -64015.093719
10.505          -4.7025        -122.748326    -64321.950905
10.615          -4.7025        -97.302945     -64564.816827
10.725          -4.7025        -69.722376     -64743.527516
10.835          -4.7025        -41.707161     -64860.61852
10.945          -4.7025        -15.753843     -64918.457037
0.055           -4.6075        -0.341225      -42775.365898
0.165           -4.6075        -1.049338      -42775.887167
0.275           -4.6075        -1.659058      -42776.903246
0.385           -4.6075        -2.353036      -42778.472368
0.495           -4.6075        -3.061391      -42780.583492
0.605           -4.6075        -3.788806      -42783.236886
0.715           -4.6075        -4.534015      -42786.440534
0.825           -4.6075        -5.299912      -42790.206367
0.935           -4.6075        -6.088724      -42794.549032
1.045           -4.6075        -6.903495      -42799.485496
1.155           -4.6075        -7.701948      -42805.065173
1.265           -4.6075        -8.527628      -42811.284083
1.375           -4.6075        -9.385527      -42818.165632
1.485           -4.6075        -10.278852     -42825.737245
1.595           -4.6075        -11.210952     -42834.029111
1.705           -4.6075        -12.190115     -42843.077165
1.815           -4.6075        -13.277866     -42852.94972
1.925           -4.6075        -14.423411     -42863.655321
2.035           -4.6075        -15.631903     -42875.237289
2.145           -4.6075        -16.908807     -42887.742566
2.255           -4.6075        -18.259936     -42901.221925
2.365           -4.6075        -19.691476     -42915.730204
2.475           -4.6075        -21.171429     -42931.352673
2.585           -4.6075        -22.690567     -42948.164928
2.695           -4.6075        -24.298918     -42966.206255
2.805           -4.6075        -26.00297      -42985.551524
2.915           -4.6075        -27.809621     -43006.281241
3.025           -4.6075        -29.726215     -43028.481931
3.135           -4.6075        -31.838976     -43052.290072
3.245           -4.6075        -34.1509       -43077.801726
3.355           -4.6075        -36.619544     -43105.096121
3.465           -4.6075        -39.257039     -43134.289746
3.575           -4.6075        -42.076443     -43165.507661
3.685           -4.6075        -45.091809     -43198.884114
3.795           -4.6075        -48.318277     -43234.563202
3.905           -4.6075        -51.586673     -43272.827339
4.015           -4.6075        -55.063088     -43313.741246
4.125           -4.6075        -58.770686     -43357.479531
4.235           -4.6075        -62.725909     -43404.236265
4.345           -4.6075        -66.946365     -43454.219876
4.455           -4.6075        -71.475301     -43507.668413
4.565           -4.6075        -76.611696     -43564.973117
4.675           -4.6075        -82.125381     -43626.255294
4.785           -4.6075        -88.045994     -43691.79596
4.895           -4.6075        -94.405557     -43761.897174
5.005           -4.6075        -101.238643    -43836.883615
5.115           -4.6075        -108.582584    -43917.104293
5.225           -4.6075        -116.273514    -44003.074587
5.335           -4.6075        -124.269933    -44095.260354
5.445           -4.6075        -132.829644    -44193.946578
5.555           -4.6075        -141.99319     -44299.605774
5.665           -4.6075        -151.803798    -44412.745797
5.775           -4.6075        -162.307485    -44533.912295
5.885           -4.6075        -173.998863    -44663.93665
5.995           -4.6075        -186.897198    -44803.426098
6.105           -4.6075        -200.780329    -44952.906313
6.215           -4.6075        -215.721614    -45113.109038
6.325           -4.6075        -231.79822     -45284.817585
6.435           -4.6075        -249.090741    -45468.869259
6.545           -4.6075        -267.682608    -45666.157523
6.655           -4.6075        -286.577271    -45878.379024
6.765           -4.6075        -306.730303    -46105.947305
6.875           -4.6075        -328.245625    -46349.913821
6.985           -4.6075        -351.18885     -46611.41674
7.095           -4.6075        -375.621148    -46891.649525
7.205           -4.6075        -401.748345    -47191.944185
7.315           -4.6075        -431.166014    -47514.446309
7.425           -4.6075        -462.432883    -47859.670932
7.535           -4.6075        -495.555451    -48228.960489
7.645           -4.6075        -530.504251    -48623.652948
7.755           -4.6075        -567.203354    -49045.055901
7.865           -4.6075        -605.518089    -49494.413821
7.975           -4.6075        -644.243309    -49973.513684
8.085           -4.6075        -682.702281    -50483.557758
8.195           -4.6075        -721.774133    -51024.457441
8.305           -4.6075        -761.034302    -51596.616609
8.415           -4.6075        -799.958426    -52200.046819
8.525           -4.6075        -837.914159    -52834.272909
8.635           -4.6075        -875.213674    -53498.968655
8.745           -4.6075        -910.380281    -54192.089783
8.855           -4.6075        -941.159109    -54910.268857
8.965           -4.6075        -966.175897    -55649.873412
9.075           -4.6075        -983.983428    -56406.276976
9.185           -4.6075        -993.132448    -57173.823515
9.295           -4.6075        -992.265801    -57945.841961
9.405           -4.6075        -981.070702    -58713.624483
9.515           -4.6075        -958.952666    -59469.137583
9.625           -4.6075        -926.070277    -60203.273204
9.735           -4.6075        -882.563439    -60907.032562
9.845           -4.6075        -828.998892    -61571.704877
9.955           -4.6075        -765.727368    -62188.912749
10.065          -4.6075        -690.570502    -62749.816705
10.175          -4.6075        -609.133041    -63250.804998
10.285          -4.6075        -523.736939    -63688.433013
10.395          -4.6075        -436.799794    -64060.911866
10.505          -4.6075        -350.06413     -64367.947934
10.615          -4.6075        -265.227665    -64610.286952
10.725          -4.6075        -186.718114    -64787.478025
10.835          -4.6075        -111.753978    -64902.7115
10.945          -4.6075        -38.894251     -64958.429504
0.055           -4.5125        -0.562842      -42773.788438
0.165           -4.5125        -1.691324      -42774.304275
0.275           -4.5125        -2.84152       -42775.334621
0.385           -4.5125        -4.021046      -42776.87995
0.495           -4.5125        -5.169561      -42778.973415
0.605           -4.5125        -6.332048      -42781.607684
0.715           -4.5125        -7.519226      -42784.787077
0.825           -4.5125        -8.734926      -42788.524256
0.935           -4.5125        -9.983079      -42792.833612
1.045           -4.5125        -11.290627     -42797.744248
1.155           -4.5125        -12.671779     -42803.279959
1.265           -4.5125        -14.10598      -42809.448108
1.375           -4.5125        -15.599294     -42816.273267
1.485           -4.5125        -17.15803      -42823.782601
1.595           -4.5125        -18.788826     -42832.006015
1.705           -4.5125        -20.498671     -42840.976295
1.815           -4.5125        -22.262674     -42850.752279
1.925           -4.5125        -24.088675     -42861.373512
2.035           -4.5125        -26.009754     -42872.864427
2.145           -4.5125        -28.033613     -42885.271605
2.255           -4.5125        -30.168405     -42898.645436
2.365           -4.5125        -32.422763     -42913.04034
2.475           -4.5125        -34.893904     -42928.560471
2.585           -4.5125        -37.523866     -42945.233788
2.695           -4.5125        -40.317214     -42963.12545
2.805           -4.5125        -43.286732     -42982.309611
2.915           -4.5125        -46.446092     -43002.866003
3.025           -4.5125        -49.809933     -43024.880307
3.135           -4.5125        -53.389565     -43048.447633
3.245           -4.5125        -57.084982     -43073.754199
3.355           -4.5125        -61.017485     -43100.829288
3.465           -4.5125        -65.204225     -43129.788442
3.575           -4.5125        -69.663545     -43160.755707
3.685           -4.5125        -74.415081     -43193.864238
3.795           -4.5125        -79.565853     -43229.300484
3.905           -4.5125        -85.194801     -43267.246223
4.015           -4.5125        -91.218053     -43307.811416
4.125           -4.5125        -97.665729     -43351.174928
4.235           -4.5125        -104.570292    -43397.528832
4.345           -4.5125        -111.966742    -43447.079393
4.455           -4.5125        -119.892821    -43500.048139
4.565           -4.5125        -128.239982    -43556.784983
4.675           -4.5125        -137.04121     -43617.554651
4.785           -4.5125        -146.456544    -43682.54664
4.895           -4.5125        -156.531129    -43752.060421
5.005           -4.5125        -167.313424    -43826.417912
5.115           -4.5125        -178.855435    -43905.965183
5.225           -4.5125        -191.681734    -43991.30963
5.335           -4.5125        -205.502836    -44082.675761
5.445           -4.5125        -220.355538    -44180.479747
5.555           -4.5125        -236.319797    -44285.189454
5.665           -4.5125        -253.48144     -44397.307856
5.775           -4.5125        -271.932426    -44517.37551
5.885           -4.5125        -291.742357    -44645.994031
5.995           -4.5125        -312.37692     -44784.271285
6.105           -4.5125        -334.501843    -44932.456357
6.215           -4.5125        -358.220947    -45091.276753
6.325           -4.5125        -383.643012    -45261.511772
6.435           -4.5125        -410.881337    -45443.995079
6.545           -4.5125        -440.563942    -45639.874901
6.655           -4.5125        -473.122463    -45850.260045
6.765           -4.5125        -508.058789    -46075.849161
6.875           -4.5125        -545.511161    -46317.723572
6.985           -4.5125        -585.613518    -46577.025482
7.095           -4.5125        -628.491131    -46854.956155
7.205           -4.5125        -674.25502     -47152.772335
7.315           -4.5125        -722.113101    -47472.42265
7.425           -4.5125        -772.094675    -47815.260998
7.535           -4.5125        -824.887828    -48182.159067
7.645           -4.5125        -880.452708    -48574.493709
7.755           -4.5125        -938.689549    -48993.621322
7.865           -4.5125        -999.42432     -49440.846532
7.975           -4.5125        -1064.70462    -49918.688361
8.085           -4.5125        -1132.066716   -50427.112695
8.195           -4.5125        -1200.75453    -50966.886657
8.305           -4.5125        -1269.959518   -51538.566484
8.415           -4.5125        -1338.65398    -52142.335513
8.525           -4.5125        -1405.567654   -52777.905867
8.635           -4.5125        -1469.114144   -53444.432864
8.745           -4.5125        -1525.253281   -54141.383611
8.855           -4.5125        -1574.640337   -54864.802213
8.965           -4.5125        -1615.303555   -55611.16251
9.075           -4.5125        -1645.174374   -56375.893986
9.185           -4.5125        -1662.171788   -57153.327655
9.295           -4.5125        -1663.854313   -57936.838811
9.405           -4.5125        -1647.097721   -58718.029481
9.515           -4.5125        -1610.626036   -59487.653463
9.625           -4.5125        -1553.707891   -60236.253424
9.735           -4.5125        -1476.516484   -60954.160951
9.845           -4.5125        -1380.231791   -61631.946541
9.955           -4.5125        -1267.055403   -62260.918026
10.065          -4.5125        -1142.796737   -62831.592217
10.175          -4.5125        -1011.12835    -63338.756893
10.285          -4.5125        -874.133108    -63780.052569
10.395          -4.5125        -734.615996    -64153.83498
10.505          -4.5125        -595.422889    -64460.224034
10.615          -4.5125        -459.510518    -64701.676566
10.725          -4.5125        -323.648678    -64877.005714
10.835          -4.5125        -192.155235    -64992.017509
10.945          -4.5125        -62.234896     -65046.173294
0.055           -4.4175        -0.780034      -42771.478842
0.165           -4.4175        -2.331643      -42772.041763
0.275           -4.4175        -3.95494       -42773.018294
0.385           -4.4175        -5.509058      -42774.531314
0.495           -4.4175        -7.138932      -42776.602574
0.605           -4.4175        -8.797761      -42779.200758
0.715           -4.4175        -10.500326     -42782.337447
0.825           -4.4175        -12.246218     -42786.02711
0.935           -4.4175        -14.042531     -42790.282575
1.045           -4.4175        -15.89639      -42795.119955
1.155           -4.4175        -17.786285     -42800.57926
1.265           -4.4175        -19.731485     -42806.674364
1.375           -4.4175        -21.753997     -42813.419091
1.485           -4.4175        -23.861792     -42820.840251
1.595           -4.4175        -26.063269     -42828.967413
1.705           -4.4175        -28.383963     -42837.841122
1.815           -4.4175        -30.869573     -42847.515034
1.925           -4.4175        -33.484906     -42858.004968
2.035           -4.4175        -36.241256     -42869.35332
2.145           -4.4175        -39.150589     -42881.606019
2.255           -4.4175        -42.2256       -42894.812742
2.365           -4.4175        -45.479784     -42909.027136
2.475           -4.4175        -48.919829     -42924.313723
2.585           -4.4175        -52.493294     -42940.787493
2.695           -4.4175        -56.281065     -42958.465327
2.805           -4.4175        -60.299174     -42977.420505
2.915           -4.4175        -64.56471      -42997.731816
3.025           -4.4175        -69.095904     -43019.483934
3.135           -4.4175        -74.017435     -43042.816179
3.245           -4.4175        -79.299557     -43067.804259
3.355           -4.4175        -84.932813     -43094.537106
3.465           -4.4175        -90.943763     -43123.128547
3.575           -4.4175        -97.360932     -43153.700767
3.685           -4.4175        -104.214967    -43186.384904
3.795           -4.4175        -111.538817    -43221.321699
3.905           -4.4175        -119.264858    -43258.74792
4.015           -4.4175        -127.44223     -43298.81324
4.125           -4.4175        -136.175225    -43341.642161
4.235           -4.4175        -145.504494    -43387.424314
4.345           -4.4175        -155.473694    -43436.363347
4.455           -4.4175        -166.205786    -43488.710373
4.565           -4.4175        -177.946274    -43544.795818
4.675           -4.4175        -190.532391    -43604.768953
4.785           -4.4175        -204.0291      -43668.903996
4.895           -4.4175        -218.506455    -43737.495697
5.005           -4.4175        -234.039982    -43810.860895
5.115           -4.4175        -250.711084    -43889.340204
5.225           -4.4175        -268.571179    -43973.334629
5.335           -4.4175        -287.358358    -44063.521193
5.445           -4.4175        -307.498343    -44160.061693
5.555           -4.4175        -329.091559    -44263.418267
5.665           -4.4175        -352.245428    -44374.087901
5.775           -4.4175        -377.074658    -44492.604926
5.885           -4.4175        -404.296601    -44619.810218
5.995           -4.4175        -433.764993    -44756.208296
6.105           -4.4175        -465.443721    -44902.375322
6.215           -4.4175        -499.495168    -45059.030801
6.325           -4.4175        -536.090366    -45226.946407
6.435           -4.4175        -575.408361    -45406.948862
6.545           -4.4175        -617.635177    -45599.922689
6.655           -4.4175        -662.357457    -45807.316855
6.765           -4.4175        -709.83602     -46030.055571
6.875           -4.4175        -760.621017    -46268.927012
6.985           -4.4175        -814.882962    -46525.077967
7.095           -4.4175        -872.782586    -46799.718333
7.205           -4.4175        -934.943477    -47094.336075
7.315           -4.4175        -1002.522018   -47410.790085
7.425           -4.4175        -1074.342975   -47749.853312
7.535           -4.4175        -1150.44357    -48112.949173
7.645           -4.4175        -1230.78826    -48501.521759
7.755           -4.4175        -1315.247144   -48917.014597
7.865           -4.4175        -1403.570485   -49360.842788
7.975           -4.4175        -1495.057351   -49834.574431
8.085           -4.4175        -1587.299735   -50340.647396
8.195           -4.4175        -1681.377951   -50878.740344
8.305           -4.4175        -1776.281202   -51449.601674
8.415           -4.4175        -1870.735659   -52053.630029
8.525           -4.4175        -1963.177754   -52690.772707
8.635           -4.4175        -2053.66124    -53361.867965
8.745           -4.4175        -2137.677802   -54064.278682
8.855           -4.4175        -2212.102404   -54795.511579
8.965           -4.4175        -2273.769494   -55552.266816
9.075           -4.4175        -2319.289731   -56330.105729
9.185           -4.4175        -2345.195083   -57123.351593
9.295           -4.4175        -2348.141275   -57925.040989
9.405           -4.4175        -2324.435102   -58726.363142
9.515           -4.4175        -2274.109943   -59516.938755
9.625           -4.4175        -2196.316326   -60286.968897
9.735           -4.4175        -2091.232331   -61025.898577
9.845           -4.4175        -1960.266599   -61723.335439
9.955           -4.4175        -1804.342306   -62368.927078
10.065          -4.4175        -1624.816833   -62952.807226
10.175          -4.4175        -1430.928571   -63470.219822
10.285          -4.4175        -1228.70757    -63917.682386
10.395          -4.4175        -1023.689902   -64293.977823
10.505          -4.4175        -821.086054    -64599.755014
10.615          -4.4175        -625.387325    -64836.310528
10.725          -4.4175        -444.551522    -65005.590463
10.835          -4.4175        -261.397339    -65118.0556
10.945          -4.4175        -85.515253     -65172.040386
0.055           -4.3225        -1.001152      -42768.400909
0.165           -4.3225        -3.007647      -42768.882353
0.275           -4.3225        -5.094532      -42769.954699
0.385           -4.3225        -7.103776      -42771.393529
0.495           -4.3225        -9.109007      -42773.490063
0.605           -4.3225        -11.265596     -42775.973256
0.715           -4.3225        -13.412509     -42779.058167
0.825           -4.3225        -15.599493     -42782.690329
0.935           -4.3225        -17.844044     -42786.879345
1.045           -4.3225        -20.190084     -42791.657401
1.155           -4.3225        -22.635196     -42797.037048
1.265           -4.3225        -25.173445     -42803.031471
1.375           -4.3225        -27.815672     -42809.664477
1.485           -4.3225        -30.572537     -42816.96218
1.595           -4.3225        -33.455504     -42824.95361
1.705           -4.3225        -36.476686     -42833.670599
1.815           -4.3225        -39.640361     -42843.155938
1.925           -4.3225        -42.919895     -42853.478585
2.035           -4.3225        -46.371783     -42864.646395
2.145           -4.3225        -50.010166     -42876.704592
2.255           -4.3225        -53.850025     -42889.702088
2.365           -4.3225        -57.912876     -42903.692475
2.475           -4.3225        -62.303379     -42918.774758
2.585           -4.3225        -66.959635     -42934.973039
2.695           -4.3225        -71.902393     -42952.354126
2.805           -4.3225        -77.153802     -42970.989881
2.915           -4.3225        -82.737533     -42990.957562
3.025           -4.3225        -88.678899     -43012.340174
3.135           -4.3225        -95.004995     -43035.226871
3.245           -4.3225        -101.67621     -43059.777627
3.355           -4.3225        -108.73681     -43086.075858
3.465           -4.3225        -116.258244    -43114.202654
3.575           -4.3225        -124.274173    -43144.278192
3.685           -4.3225        -132.820667    -43176.431454
3.795           -4.3225        -142.053489    -43210.845646
3.905           -4.3225        -152.018692    -43247.6809
4.015           -4.3225        -162.675028    -43287.055217
4.125           -4.3225        -174.074671    -43329.141534
4.235           -4.3225        -186.273801    -43374.125524
4.345           -4.3225        -199.33293     -43422.20655
4.455           -4.3225        -213.317251    -43473.59869
4.565           -4.3225        -228.271164    -43528.565976
4.675           -4.3225        -244.057759    -43587.523984
4.785           -4.3225        -260.956361    -43650.572266
4.895           -4.3225        -279.049797    -43718.000432
5.005           -4.3225        -298.427118    -43790.119828
5.115           -4.3225        -319.207231    -43867.262252
5.225           -4.3225        -341.977397    -43950.015815
5.335           -4.3225        -366.426165    -44038.57812
5.445           -4.3225        -392.682878    -44133.370044
5.555           -4.3225        -420.886583    -44234.844391
5.665           -4.3225        -451.186571    -44343.488307
5.775           -4.3225        -483.742881    -44459.825823
5.885           -4.3225        -518.726746    -44584.420568
5.995           -4.3225        -555.951069    -44718.240263
6.105           -4.3225        -595.659381    -44861.835158
6.215           -4.3225        -638.266725    -45015.743533
6.325           -4.3225        -683.976277    -45180.728497
6.435           -4.3225        -733.000555    -45357.608799
6.545           -4.3225        -786.257771    -45547.527301
6.655           -4.3225        -843.990382    -45751.493481
6.765           -4.3225        -905.935431    -45970.275441
6.875           -4.3225        -972.345726    -46204.956066
6.985           -4.3225        -1043.46999    -46456.687605
7.095           -4.3225        -1119.546191   -46726.692385
7.205           -4.3225        -1200.792914   -47016.26227
7.315           -4.3225        -1287.1843     -47326.983134
7.425           -4.3225        -1377.658239   -47661.174578
7.535           -4.3225        -1473.445677   -48019.357062
7.645           -4.3225        -1574.519357   -48403.046873
7.755           -4.3225        -1680.746597   -48813.779275
7.865           -4.3225        -1792.197716   -49253.23316
7.975           -4.3225        -1910.47031    -49724.010617
8.085           -4.3225        -2032.692948   -50226.458758
8.195           -4.3225        -2157.874829   -50761.849347
8.305           -4.3225        -2284.690448   -51331.238423
8.415           -4.3225        -2411.425294   -51935.378028
8.525           -4.3225        -2535.92368    -52574.609335
8.635           -4.3225        -2655.544037   -53248.735978
8.745           -4.3225        -2764.418903   -53958.058491
8.855           -4.3225        -2861.180845   -54699.325227
8.965           -4.3225        -2942.438806   -55469.316315
9.075           -4.3225        -3004.062743   -56263.778392
9.185           -4.3225        -3041.802104   -57077.08314
9.295           -4.3225        -3051.737542   -57903.561681
9.405           -4.3225        -3026.458024   -58732.017418
9.515           -4.3225        -2963.977141   -59552.415748
9.625           -4.3225        -2862.409002   -60353.334745
9.735           -4.3225        -2721.632154   -61122.715717
9.845           -4.3225        -2543.616426   -61848.48699
9.955           -4.3225        -2332.555386   -62519.34093
10.065          -4.3225        -2096.331318   -63123.999987
10.175          -4.3225        -1845.414956   -63654.159908
10.285          -4.3225        -1585.142102   -64108.457768
10.395          -4.3225        -1322.578646   -64486.0844