% Model:              PurmonSmall_traj-grid.mph
% Version:            COMSOL 4.3.0.151
% Date:               Mar 5 2014, 16:08
% Dimension:          2
% Nodes:              10000
% Expressions:        2
% Description:        , 
% Length unit:        mm
% r             z              es.Er (V/m) @ TopV=5 es.Ez (V/m) @ TopV=5
0.055           -4.7025        -0.108475      -37354.258139
0.165           -4.7025        -0.266526      -37354.622677
0.275           -4.7025        -0.440838      -37355.359901
0.385           -4.7025        -0.59912       -37356.476382
0.495           -4.7025        -0.752223      -37357.974259
0.605           -4.7025        -0.906203      -37359.855539
0.715           -4.7025        -1.062554      -37362.126929
0.825           -4.7025        -1.22229       -37364.796895
0.935           -4.7025        -1.385784      -37367.875884
1.045           -4.7025        -1.560918      -37371.38054
1.155           -4.7025        -1.769175      -37375.337253
1.265           -4.7025        -1.985994      -37379.746448
1.375           -4.7025        -2.212447      -37384.625809
1.485           -4.7025        -2.449659      -37389.994913
1.595           -4.7025        -2.698817      -37395.875317
1.705           -4.7025        -2.961179      -37402.290659
1.815           -4.7025        -3.200017      -37409.290901
1.925           -4.7025        -3.442857      -37416.887744
2.035           -4.7025        -3.697253      -37425.10786
2.145           -4.7025        -3.964016      -37433.984895
2.255           -4.7025        -4.243996      -37443.555266
2.365           -4.7025        -4.538081      -37453.858334
2.475           -4.7025        -4.893847      -37464.96443
2.585           -4.7025        -5.291429      -37476.906766
2.695           -4.7025        -5.715823      -37489.725249
2.805           -4.7025        -6.169336      -37503.473766
2.915           -4.7025        -6.654458      -37518.210324
3.025           -4.7025        -7.173879      -37533.997332
3.135           -4.7025        -7.698841      -37550.922037
3.245           -4.7025        -8.196031      -37569.080256
3.355           -4.7025        -8.722493      -37588.515115
3.465           -4.7025        -9.280095      -37609.31117
3.575           -4.7025        -9.87081       -37631.559342
3.685           -4.7025        -10.496726     -37655.357387
3.795           -4.7025        -11.191414     -37680.829216
3.905           -4.7025        -12.047369     -37708.140855
4.015           -4.7025        -12.968999     -37737.3559
4.125           -4.7025        -13.9619       -37768.606826
4.235           -4.7025        -15.032168     -37802.036194
4.345           -4.7025        -16.186444     -37837.797443
4.455           -4.7025        -17.431968     -37876.055748
4.565           -4.7025        -18.588887     -37917.109084
4.675           -4.7025        -19.789094     -37961.070599
4.785           -4.7025        -21.066883     -38008.13022
4.895           -4.7025        -22.427365     -38058.513425
5.005           -4.7025        -23.875962     -38112.463276
5.115           -4.7025        -25.418423     -38170.24181
5.225           -4.7025        -27.317475     -38232.283922
5.335           -4.7025        -29.467852     -38298.827012
5.445           -4.7025        -31.796747     -38370.152942
5.555           -4.7025        -34.319889     -38446.620857
5.665           -4.7025        -37.054353     -38528.618073
5.775           -4.7025        -40.018639     -38616.562178
5.885           -4.7025        -43.042932     -38711.024245
5.995           -4.7025        -45.943347     -38812.622926
6.105           -4.7025        -49.040722     -38921.687763
6.215           -4.7025        -52.347536     -39038.787771
6.325           -4.7025        -55.876782     -39164.534332
6.435           -4.7025        -59.641939     -39299.583401
6.545           -4.7025        -63.85734      -39444.757464
6.655           -4.7025        -69.074723     -39601.123054
6.765           -4.7025        -74.722137     -39769.135085
6.875           -4.7025        -80.828815     -39949.653054
6.985           -4.7025        -87.423341     -40143.586197
7.095           -4.7025        -94.532608     -40351.891747
7.205           -4.7025        -102.180432    -40575.571635
7.315           -4.7025        -109.240082    -40816.397053
7.425           -4.7025        -116.506073    -41074.941739
7.535           -4.7025        -124.157321    -41352.18301
7.645           -4.7025        -132.189824    -41649.214317
7.755           -4.7025        -140.594002    -41967.1086
7.865           -4.7025        -149.353861    -42306.891673
7.975           -4.7025        -159.755435    -42670.30188
8.085           -4.7025        -171.061998    -43057.746694
8.195           -4.7025        -182.648438    -43469.536458
8.305           -4.7025        -194.357693    -43906.044102
8.415           -4.7025        -205.985323    -44367.330995
8.525           -4.7025        -217.274436    -44853.070895
8.635           -4.7025        -227.499397    -45362.711188
8.745           -4.7025        -235.642375    -45895.262428
8.855           -4.7025        -242.844753    -46447.783849
8.965           -4.7025        -248.877047    -47017.429421
9.075           -4.7025        -253.503305    -47600.574279
9.185           -4.7025        -256.486362    -48192.793586
9.295           -4.7025        -257.138       -48788.628179
9.405           -4.7025        -255.106801    -49382.192475
9.515           -4.7025        -249.594628    -49966.485521
9.625           -4.7025        -240.454173    -50534.593304
9.735           -4.7025        -227.722843    -51079.531351
9.845           -4.7025        -211.641369    -51594.548409
9.955           -4.7025        -192.648421    -52073.446589
10.065          -4.7025        -174.440586    -52508.897895
10.175          -4.7025        -155.476192    -52898.180236
10.285          -4.7025        -135.867102    -53238.706957
10.395          -4.7025        -115.899527    -53528.982619
10.505          -4.7025        -95.843157     -53768.639985
10.615          -4.7025        -75.920978     -53958.178787
10.725          -4.7025        -54.366935     -54097.550631
10.835          -4.7025        -32.503543     -54188.810574
10.945          -4.7025        -12.273861     -54233.873157
0.055           -4.6075        -0.240873      -37353.729143
0.165           -4.6075        -0.740737      -37354.097106
0.275           -4.6075        -1.17116       -37354.814358
0.385           -4.6075        -1.661087      -37355.922027
0.495           -4.6075        -2.1612        -37357.412337
0.605           -4.6075        -2.674817      -37359.285513
0.715           -4.6075        -3.20106       -37361.54723
0.825           -4.6075        -3.741985      -37364.205961
0.935           -4.6075        -4.299182      -37367.272106
1.045           -4.6075        -4.874819      -37370.757716
1.155           -4.6075        -5.439039      -37374.697788
1.265           -4.6075        -6.022624      -37379.089599
1.375           -4.6075        -6.629118      -37383.949795
1.485           -4.6075        -7.260811      -37389.297877
1.595           -4.6075        -7.920095      -37395.155323
1.705           -4.6075        -8.61287       -37401.547697
1.815           -4.6075        -9.382722      -37408.523495
1.925           -4.6075        -10.193762     -37416.088973
2.035           -4.6075        -11.049692     -37424.275015
2.145           -4.6075        -11.954441     -37433.115102
2.255           -4.6075        -12.912197     -37442.645477
2.365           -4.6075        -13.92742      -37452.905308
2.475           -4.6075        -14.97748      -37463.955432
2.585           -4.6075        -16.055922     -37475.849883
2.695           -4.6075        -17.198299     -37488.617006
2.805           -4.6075        -18.409324     -37502.310471
2.915           -4.6075        -19.69402      -37516.988048
3.025           -4.6075        -21.057745     -37532.71189
3.135           -4.6075        -22.562121     -37549.579848
3.245           -4.6075        -24.209543     -37567.661157
3.355           -4.6075        -25.970065     -37587.013254
3.465           -4.6075        -27.852626     -37607.720258
3.575           -4.6075        -29.866872     -37629.872609
3.685           -4.6075        -32.023217     -37653.567543
3.795           -4.6075        -34.332913     -37678.909602
3.905           -4.6075        -36.675151     -37706.102914
4.015           -4.6075        -39.169315     -37735.195811
4.125           -4.6075        -41.832419     -37766.315853
4.235           -4.6075        -44.676844     -37799.604954
4.345           -4.6075        -47.715898     -37835.215861
4.455           -4.6075        -50.981621     -37873.323307
4.565           -4.6075        -54.690984     -37914.213045
4.675           -4.6075        -58.679282     -37957.977336
4.785           -4.6075        -62.969264     -38004.824199
4.895           -4.6075        -67.585617     -38054.977833
5.005           -4.6075        -72.555114     -38108.679908
5.115           -4.6075        -77.906798     -38166.190963
5.225           -4.6075        -83.522728     -38227.894809
5.335           -4.6075        -89.374859     -38294.140492
5.445           -4.6075        -95.652734     -38365.14686
5.555           -4.6075        -102.388523    -38441.271446
5.665           -4.6075        -109.616694    -38522.899872
5.775           -4.6075        -117.374114    -38610.447954
5.885           -4.6075        -126.03195     -38704.545901
5.995           -4.6075        -135.609843    -38805.661296
6.105           -4.6075        -145.948905    -38914.205209
6.215           -4.6075        -157.109343    -39030.744299
6.325           -4.6075        -169.154925    -39155.887665
6.435           -4.6075        -182.152754    -39290.289147
6.545           -4.6075        -196.172871    -39434.649455
6.655           -4.6075        -210.468225    -39590.285083
6.765           -4.6075        -225.766828    -39757.544825
6.875           -4.6075        -242.152952    -39937.267633
6.985           -4.6075        -259.684496    -40130.36376
7.095           -4.6075        -278.416557    -40337.792568
7.205           -4.6075        -298.518696    -40560.628496
7.315           -4.6075        -321.235393    -40800.578209
7.425           -4.6075        -345.470909    -41058.10764
7.535           -4.6075        -371.242443    -41334.32338
7.645           -4.6075        -398.53941     -41630.337075
7.755           -4.6075        -427.314883    -41947.245316
7.865           -4.6075        -457.475527    -42286.103944
7.975           -4.6075        -488.078222    -42648.411631
8.085           -4.6075        -518.597667    -43035.211919
8.195           -4.6075        -549.726279    -43446.536419
8.305           -4.6075        -581.134234    -43882.809596
8.415           -4.6075        -612.410305    -44344.150144
8.525           -4.6075        -643.054788    -44830.293858
8.635           -4.6075        -673.348855    -45341.112194
8.745           -4.6075        -702.11138     -45875.093019
8.855           -4.6075        -727.524869    -46429.661431
8.965           -4.6075        -748.47845     -47002.025238
9.075           -4.6075        -763.79718     -47588.587024
9.185           -4.6075        -772.299308    -48184.91189
9.295           -4.6075        -772.872778    -48785.735727
9.405           -4.6075        -765.167541    -49384.19132
9.515           -4.6075        -748.743004    -49973.840956
9.625           -4.6075        -723.71087     -50547.405299
9.735           -4.6075        -690.168529    -51097.679378
9.845           -4.6075        -648.560757    -51617.677758
9.955           -4.6075        -599.170162    -52100.679577
10.065          -4.6075        -540.325654    -52539.634498
10.175          -4.6075        -476.457737    -52931.601279
10.285          -4.6075        -409.446367    -53273.831138
10.395          -4.6075        -341.245725    -53564.917957
10.505          -4.6075        -273.270514    -53804.667973
10.615          -4.6075        -206.882391    -53993.733974
10.725          -4.6075        -145.546731    -54131.861763
10.835          -4.6075        -87.071276     -54221.627492
10.945          -4.6075        -30.295556     -54265.014794
0.055           -4.5125        -0.397308      -37352.615614
0.165           -4.5125        -1.193907      -37352.979726
0.275           -4.5125        -2.005853      -37353.70702
0.385           -4.5125        -2.838555      -37354.797842
0.495           -4.5125        -3.649424      -37356.275622
0.605           -4.5125        -4.470234      -37358.135216
0.715           -4.5125        -5.308568      -37360.379712
0.825           -4.5125        -6.167153      -37363.018097
0.935           -4.5125        -7.048789      -37366.060587
1.045           -4.5125        -7.972534      -37369.527802
1.155           -4.5125        -8.94847       -37373.436629
1.265           -4.5125        -9.96211       -37377.792364
1.375           -4.5125        -11.017775     -37382.612468
1.485           -4.5125        -12.119972     -37387.916255
1.595           -4.5125        -13.273443     -37393.724995
1.705           -4.5125        -14.483188     -37400.062014
1.815           -4.5125        -15.73166      -37406.969112
1.925           -4.5125        -17.024461     -37414.47447
2.035           -4.5125        -18.385064     -37422.59559
2.145           -4.5125        -19.819007     -37431.365692
2.255           -4.5125        -21.332161     -37440.820733
2.365           -4.5125        -22.930753     -37450.999573
2.475           -4.5125        -24.68391      -37461.976381
2.585           -4.5125        -26.550712     -37473.771417
2.695           -4.5125        -28.534573     -37486.431353
2.805           -4.5125        -30.644781     -37500.009324
2.915           -4.5125        -32.891289     -37514.562516
3.025           -4.5125        -35.284773     -37530.152453
3.135           -4.5125        -37.833581     -37546.847486
3.245           -4.5125        -40.46689      -37564.781079
3.355           -4.5125        -43.271303     -37583.975017
3.465           -4.5125        -46.259455     -37604.512697
3.575           -4.5125        -49.444899     -37626.483783
3.685           -4.5125        -52.842178     -37649.984672
3.795           -4.5125        -56.528517     -37675.150087
3.905           -4.5125        -60.561479     -37702.11189
4.015           -4.5125        -64.881868     -37730.95088
4.125           -4.5125        -69.512278     -37761.797489
4.235           -4.5125        -74.477142     -37794.792064
4.345           -4.5125        -79.802901     -37830.085641
4.455           -4.5125        -85.518171     -37867.840788
4.565           -4.5125        -91.54632      -37908.313589
4.675           -4.5125        -97.912619     -37951.699504
4.785           -4.5125        -104.734196    -37998.140258
4.895           -4.5125        -112.045851    -38047.857949
5.005           -4.5125        -119.885099    -38101.091992
5.115           -4.5125        -128.292367    -38158.10051
5.225           -4.5125        -137.654341    -38219.333107
5.335           -4.5125        -147.764333    -38284.963203
5.445           -4.5125        -158.653419    -38355.304702
5.555           -4.5125        -170.384978    -38430.71121
5.665           -4.5125        -183.027396    -38511.564185
5.775           -4.5125        -196.654333    -38598.275065
5.885           -4.5125        -211.323522    -38691.303153
5.995           -4.5125        -226.647383    -38791.487475
6.105           -4.5125        -243.12336     -38899.032775
6.215           -4.5125        -260.836679    -39014.501839
6.325           -4.5125        -279.877209    -39138.500012
6.435           -4.5125        -300.339197    -39271.677606
6.545           -4.5125        -322.707327    -39414.925541
6.655           -4.5125        -347.324964    -39569.113531
6.765           -4.5125        -373.829809    -39734.807717
6.875           -4.5125        -402.341531    -39912.867518
6.985           -4.5125        -432.977896    -40104.205179
7.095           -4.5125        -465.851395    -40309.784988
7.205           -4.5125        -501.064848    -40530.621116
7.315           -4.5125        -538.026995    -40768.27273
7.425           -4.5125        -576.773167    -41023.85008
7.535           -4.5125        -617.846891    -41298.096007
7.645           -4.5125        -661.234704    -41592.152286
7.755           -4.5125        -706.876296    -41907.153727
7.865           -4.5125        -754.652766    -42244.203694
7.975           -4.5125        -806.211753    -42605.37079
8.085           -4.5125        -859.631731    -42990.732405
8.195           -4.5125        -914.331273    -43400.996437
8.305           -4.5125        -969.684143    -43836.710995
8.415           -4.5125        -1024.885528   -44298.134891
8.525           -4.5125        -1078.931978   -44785.157463
8.635           -4.5125        -1130.559536   -45297.229692
8.745           -4.5125        -1176.507627   -45834.083474
8.855           -4.5125        -1217.298449   -46392.660426
8.965           -4.5125        -1251.337633   -46970.25905
9.075           -4.5125        -1276.945805   -47563.332181
9.185           -4.5125        -1292.426683   -48167.439427
9.295           -4.5125        -1295.827404   -48777.377916
9.405           -4.5125        -1284.614922   -49386.491844
9.515           -4.5125        -1257.677554   -49987.390097
9.625           -4.5125        -1214.387772   -50572.51189
9.735           -4.5125        -1154.851585   -51134.108342
9.845           -4.5125        -1079.994931   -51664.60839
9.955           -4.5125        -991.57804     -52157.025106
10.065          -4.5125        -894.219115    -52603.770619
10.175          -4.5125        -790.905775    -53000.648764
10.285          -4.5125        -683.365434    -53345.760562
10.395          -4.5125        -573.880938    -53637.818339
10.505          -4.5125        -464.756274    -53876.965697
10.615          -4.5125        -358.366377    -54065.217174
10.725          -4.5125        -252.211719    -54201.756168
10.835          -4.5125        -149.659514    -54291.244806
10.945          -4.5125        -48.455573     -54333.347223
0.055           -4.4175        -0.550612      -37350.985298
0.165           -4.4175        -1.645875      -37351.382617
0.275           -4.4175        -2.791769      -37352.071886
0.385           -4.4175        -3.888896      -37353.139834
0.495           -4.4175        -5.039576      -37354.601848
0.605           -4.4175        -6.210809      -37356.435847
0.715           -4.4175        -7.413054      -37358.650045
0.825           -4.4175        -8.646057      -37361.2547
0.935           -4.4175        -9.91486       -37364.258923
1.045           -4.4175        -11.224533     -37367.674155
1.155           -4.4175        -12.559935     -37371.528734
1.265           -4.4175        -13.934701     -37375.832557
1.375           -4.4175        -15.364431     -37380.595481
1.485           -4.4175        -16.854812     -37385.836562
1.595           -4.4175        -18.411847     -37391.576824
1.705           -4.4175        -20.053657     -37397.845059
1.815           -4.4175        -21.812718     -37404.679395
1.925           -4.4175        -23.664213     -37412.091206
2.035           -4.4175        -25.61625      -37420.110695
2.145           -4.4175        -27.677431     -37428.770602
2.255           -4.4175        -29.856895     -37438.106358
2.365           -4.4175        -32.164373     -37448.156252
2.475           -4.4175        -34.604826     -37458.966327
2.585           -4.4175        -37.141244     -37470.618582
2.695           -4.4175        -39.831193     -37483.125386
2.805           -4.4175        -42.686316     -37496.539222
2.915           -4.4175        -45.71905      -37510.916572
3.025           -4.4175        -48.942691     -37526.3182
3.135           -4.4175        -52.44638      -37542.843761
3.245           -4.4175        -56.209631     -37560.54806
3.355           -4.4175        -60.22619      -37579.495272
3.465           -4.4175        -64.515615     -37599.767486
3.575           -4.4175        -69.098963     -37621.452943
3.685           -4.4175        -73.998924     -37644.646489
3.795           -4.4175        -79.239958     -37669.450077
3.905           -4.4175        -84.774962     -37696.034758
4.015           -4.4175        -90.639827     -37724.509775
4.125           -4.4175        -96.91047      -37754.966399
4.235           -4.4175        -103.617485    -37787.543056
4.345           -4.4175        -110.793832    -37822.388716
4.455           -4.4175        -118.529684    -37859.68674
4.565           -4.4175        -127.005476    -37899.678996
4.675           -4.4175        -136.106071    -37942.47729
4.785           -4.4175        -145.881287    -37988.284156
4.895           -4.4175        -156.385074    -38037.317862
5.005           -4.4175        -167.675847    -38089.813682
5.115           -4.4175        -179.816846    -38146.02526
5.225           -4.4175        -192.850718    -38206.251334
5.335           -4.4175        -206.591154    -38270.995375
5.445           -4.4175        -221.353068    -38340.384731
5.555           -4.4175        -237.216046    -38414.768168
5.665           -4.4175        -254.265638    -38494.522046
5.775           -4.4175        -272.59366     -38580.052451
5.885           -4.4175        -292.739474    -38671.992438
5.995           -4.4175        -314.609082    -38770.735151
6.105           -4.4175        -338.185669    -38876.725991
6.215           -4.4175        -363.602309    -38990.520485
6.325           -4.4175        -391.000099    -39112.716888
6.435           -4.4175        -420.527798    -39243.958834
6.545           -4.4175        -452.341165    -39384.937924
6.655           -4.4175        -486.150464    -39536.778209
6.765           -4.4175        -522.162571    -39700.217165
6.875           -4.4175        -560.811295    -39875.890086
6.985           -4.4175        -602.246341    -40064.71135
7.095           -4.4175        -646.611564    -40267.650522
7.205           -4.4175        -694.406591    -40485.894021
7.315           -4.4175        -746.564865    -40720.932434
7.425           -4.4175        -802.203703    -40973.42691
7.535           -4.4175        -861.379652    -41244.545669
7.645           -4.4175        -924.09335     -41535.482376
7.755           -4.4175        -990.27196     -41847.439943
7.865           -4.4175        -1059.748334   -42181.60896
7.975           -4.4175        -1132.004981   -42539.309874
8.085           -4.4175        -1205.158894   -42922.580104
8.195           -4.4175        -1280.071858   -43331.265761
8.305           -4.4175        -1355.961648   -43766.070897
8.415           -4.4175        -1431.831748   -44227.429862
8.525           -4.4175        -1506.448498   -44715.424611
8.635           -4.4175        -1579.900423   -45230.860386
8.745           -4.4175        -1648.584119   -45771.777707
8.855           -4.4175        -1709.973326   -46336.312342
8.965           -4.4175        -1761.510335   -46921.9545
9.075           -4.4175        -1800.44455    -47525.273096
9.185           -4.4175        -1823.949307   -48141.830972
9.295           -4.4175        -1829.286106   -48766.140772
9.405           -4.4175        -1813.379495   -49391.246427
9.515           -4.4175        -1776.198807   -50008.858468
9.625           -4.4175        -1717.039379   -50611.114579
9.735           -4.4175        -1636.001329   -51189.545593
9.845           -4.4175        -1534.186378   -51735.795608
9.955           -4.4175        -1412.348463   -52241.546095
10.065          -4.4175        -1271.618324   -52698.87204
10.175          -4.4175        -1119.385122   -53103.908385
10.285          -4.4175        -960.533909    -53453.866155
10.395          -4.4175        -799.560515    -53747.800838
10.505          -4.4175        -640.681821    -53986.293832
10.615          -4.4175        -487.489766    -54170.506564
10.725          -4.4175        -346.228506    -54302.098887
10.835          -4.4175        -203.449345    -54389.452009
10.945          -4.4175        -66.540595     -54431.314946
0.055           -4.3225        -0.706675      -37348.812671
0.165           -4.3225        -2.122996      -37349.152453
0.275           -4.3225        -3.596101      -37349.909289
0.385           -4.3225        -5.01447       -37350.924783
0.495           -4.3225        -6.430141      -37352.404495
0.605           -4.3225        -7.952762      -37354.157177
0.715           -4.3225        -9.468731      -37356.334633
0.825           -4.3225        -11.013194     -37358.898468
0.935           -4.3225        -12.59854      -37361.855512
1.045           -4.3225        -14.255832     -37365.228536
1.155           -4.3225        -15.983449     -37369.026494
1.265           -4.3225        -17.777246     -37373.258775
1.375           -4.3225        -19.644948     -37377.942284
1.485           -4.3225        -21.594165     -37383.095578
1.595           -4.3225        -23.633085     -37388.739283
1.705           -4.3225        -25.77037      -37394.896033
1.815           -4.3225        -28.009195     -37401.596219
1.925           -4.3225        -30.330788     -37408.888851
2.035           -4.3225        -32.775251     -37416.779649
2.145           -4.3225        -35.352749     -37425.300832
2.255           -4.3225        -38.074065     -37434.487269
2.365           -4.3225        -40.954577     -37444.377132
2.475           -4.3225        -44.06892      -37455.040945
2.585           -4.3225        -47.373413     -37466.496144
2.695           -4.3225        -50.883087     -37478.790497
2.805           -4.3225        -54.614023     -37491.975429
2.915           -4.3225        -58.583436     -37506.106274
3.025           -4.3225        -62.809775     -37521.242544
3.135           -4.3225        -67.312832     -37537.448226
3.245           -4.3225        -72.065283     -37554.837843
3.355           -4.3225        -77.098889     -37573.471772
3.465           -4.3225        -82.465347     -37593.408614
3.575           -4.3225        -88.189499     -37614.735074
3.685           -4.3225        -94.298034     -37637.544344
3.795           -4.3225        -100.903249    -37661.968237
3.905           -4.3225        -108.040188    -37688.123251
4.015           -4.3225        -115.68055     -37716.095448
4.125           -4.3225        -123.863421    -37746.01063
4.235           -4.3225        -132.631031    -37778.004119
4.345           -4.3225        -142.029027    -37812.221503
4.455           -4.3225        -152.106764    -37848.819445
4.565           -4.3225        -162.899856    -37887.990921
4.675           -4.3225        -174.311841    -37930.040396
4.785           -4.3225        -186.547373    -37975.043584
4.895           -4.3225        -199.670213    -38023.214591
5.005           -4.3225        -213.749196    -38074.784208
5.115           -4.3225        -228.874233    -38129.998013
5.225           -4.3225        -245.482687    -38189.291584
5.335           -4.3225        -263.353067    -38252.816924
5.445           -4.3225        -282.587214    -38320.889848
5.555           -4.3225        -303.295152    -38393.851253
5.665           -4.3225        -325.595612    -38472.069137
5.775           -4.3225        -349.616539    -38555.940751
5.885           -4.3225        -375.495566    -38645.894908
5.995           -4.3225        -403.112551    -38742.662367
6.105           -4.3225        -432.652857    -38846.672235
6.215           -4.3225        -464.440243    -38958.342701
6.325           -4.3225        -498.642198    -39078.264094
6.435           -4.3225        -535.4351      -39207.072456
6.545           -4.3225        -575.526336    -39345.645423
6.655           -4.3225        -619.135088    -39494.782164
6.765           -4.3225        -666.082621    -39655.094797
6.875           -4.3225        -716.586684    -39827.440259
6.985           -4.3225        -770.864469    -40012.734795
7.095           -4.3225        -829.127487    -40211.955227
7.205           -4.3225        -891.574847    -40426.139292
7.315           -4.3225        -958.231629    -40656.556192
7.425           -4.3225        -1028.299101   -40905.07145
7.535           -4.3225        -1102.755169   -41172.150295
7.645           -4.3225        -1181.612782   -41459.041973
7.755           -4.3225        -1264.802918   -41767.020886
7.865           -4.3225        -1352.405513   -42097.47463
7.975           -4.3225        -1445.760713   -42452.553626
8.085           -4.3225        -1542.626829   -42832.636401
8.195           -4.3225        -1642.254205   -43238.836162
8.305           -4.3225        -1743.622441   -43672.106192
8.415           -4.3225        -1845.394795   -44133.168668
8.525           -4.3225        -1945.87397    -44622.427964
8.635           -4.3225        -2042.963623   -45139.867383
8.745           -4.3225        -2131.973712   -45685.896157
8.855           -4.3225        -2211.750374   -46258.071677
8.965           -4.3225        -2279.568866   -46853.943067
9.075           -4.3225        -2332.078029   -47470.240235
9.185           -4.3225        -2365.814531   -48102.576569
9.295           -4.3225        -2377.629375   -48746.54098
9.405           -4.3225        -2361.475807   -49393.234838
9.515           -4.3225        -2315.629724   -50034.637246
9.625           -4.3225        -2238.491461   -50661.599019
9.735           -4.3225        -2129.892129   -51264.429572
9.845           -4.3225        -1991.365625   -51833.404028
9.955           -4.3225        -1826.262428   -52359.397302
10.065          -4.3225        -1640.891387   -52833.333274
10.175          -4.3225        -1443.711444   -53248.517362
10.285          -4.3225        -1239.106608   -53603.831386
10.395          -4.3225        -1032.811879   -53898.662195