% Model:              PurmonSmall_traj-grid.mph
% Version:            COMSOL 4.3.0.151
% Date:               Mar 5 2014, 16:08
% Dimension:          2
% Nodes:              10000
% Expressions:        2
% Description:        , 
% Length unit:        mm
% r             z              es.Er (V/m) @ TopV=0 es.Ez (V/m) @ TopV=0
0.055           -4.7025        0.205082       264.558403
0.165           -4.7025        0.503871       265.247597
0.275           -4.7025        0.833338       266.641326
0.385           -4.7025        1.132429       268.751829
0.495           -4.7025        1.421605       271.582934
0.605           -4.7025        1.712306       275.138109
0.715           -4.7025        2.007323       279.429624
0.825           -4.7025        2.308545       284.472983
0.935           -4.7025        2.616642       290.287322
1.045           -4.7025        2.946363       296.90331
1.155           -4.7025        3.338072       304.369866
1.265           -4.7025        3.745399       312.686825
1.375           -4.7025        4.170259       321.886396
1.485           -4.7025        4.614655       332.004165
1.595           -4.7025        5.080688       343.079239
1.705           -4.7025        5.570569       355.154393
1.815           -4.7025        6.015822       368.321103
1.925           -4.7025        6.467643       382.599343
2.035           -4.7025        6.940138       398.036565
2.145           -4.7025        7.434693       414.692902
2.255           -4.7025        7.952746       432.633206
2.365           -4.7025        8.495797       451.927297
2.475           -4.7025        9.15082        472.701283
2.585           -4.7025        9.880935       495.012444
2.695           -4.7025        10.657838      518.929434
2.805           -4.7025        11.485249      544.545967
2.915           -4.7025        12.367127      571.962347
3.025           -4.7025        13.307685      601.285836
3.135           -4.7025        14.254895      632.666921
3.245           -4.7025        15.147757      666.270492
3.355           -4.7025        16.089517      702.16424
3.465           -4.7025        17.082918      740.489149
3.575           -4.7025        18.130821      781.395516
3.685           -4.7025        19.236208      825.043471
3.795           -4.7025        20.455881      871.63577
3.905           -4.7025        21.950361      921.446783
4.015           -4.7025        23.548583      974.566138
4.125           -4.7025        25.25788       1031.201339
4.235           -4.7025        27.086027      1091.5729
4.345           -4.7025        29.041255      1155.915026
4.455           -4.7025        31.132263      1224.476311
4.565           -4.7025        33.05895       1297.717555
4.675           -4.7025        35.037911      1375.786994
4.785           -4.7025        37.126468      1458.950113
4.895           -4.7025        39.329991      1547.5237
5.005           -4.7025        41.654021      1641.842811
5.115           -4.7025        44.104266      1742.261504
5.225           -4.7025        47.078336      1849.387462
5.335           -4.7025        50.404297      1963.507803
5.445           -4.7025        53.952951      2084.957774
5.555           -4.7025        57.737066      2214.178034
5.665           -4.7025        61.769659      2351.631375
5.775           -4.7025        66.063897      2497.803033
5.885           -4.7025        70.374938      2653.364337
5.995           -4.7025        74.423012      2819.033425
6.105           -4.7025        78.67281       2995.074017
6.215           -4.7025        83.130496      3182.064103
6.325           -4.7025        87.801916      3380.602112
6.435           -4.7025        92.692526      3591.305434
6.545           -4.7025        98.036635      3814.94662
6.655           -4.7025        104.503836     4052.571879
6.765           -4.7025        111.317149     4304.374791
6.875           -4.7025        118.478654     4571.021627
6.985           -4.7025        125.986377     4853.178342
7.095           -4.7025        133.833271     5151.503655
7.205           -4.7025        142.006005     5466.640679
7.315           -4.7025        149.337598     5799.926376
7.425           -4.7025        156.627854     6151.4161
7.535           -4.7025        164.081446     6521.480963
7.645           -4.7025        171.672297     6910.561119
7.755           -4.7025        179.369235     7319.002413
7.865           -4.7025        187.135536     7747.032904
7.975           -4.7025        195.943425     8195.363451
8.085           -4.7025        205.142287     8663.54224
8.195           -4.7025        214.117981     9150.930658
8.305           -4.7025        222.712402     9656.930342
8.415           -4.7025        230.740409     10180.64699
8.525           -4.7025        237.989367     10720.848603
8.635           -4.7025        244.062158     11276.004959
8.745           -4.7025        248.297684     11844.293318
8.855           -4.7025        251.499476     12422.590314
8.965           -4.7025        253.522602     13007.847064
9.075           -4.7025        254.224405     13596.528596
9.185           -4.7025        253.467869     14184.628387
9.295           -4.7025        250.644333     14767.433574
9.405           -4.7025        245.174875     15339.940004
9.515           -4.7025        237.033798     15897.019468
9.625           -4.7025        226.197496     16433.48754
9.735           -4.7025        212.757806     16944.23597
9.845           -4.7025        196.924959     17424.414355
9.955           -4.7025        179.018804     17869.614463
10.065          -4.7025        162.251198     18274.246872
10.175          -4.7025        145.030061     18636.606107
10.285          -4.7025        127.278285     18954.78289
10.395          -4.7025        109.15996      19227.469519
10.505          -4.7025        90.834691      19454.068944
10.615          -4.7025        72.434878      19634.533093
10.725          -4.7025        52.174704      19768.108458
10.835          -4.7025        31.354505      19856.073809
10.945          -4.7025        11.871523      19899.655307
0.055           -4.6075        0.45541        263.558269
0.165           -4.6075        1.400445       264.253998
0.275           -4.6075        2.214049       265.610113
0.385           -4.6075        3.139905       267.704181
0.495           -4.6075        4.084655       270.521298
0.605           -4.6075        5.054442       274.061561
0.715           -4.6075        6.04747        278.335305
0.825           -4.6075        7.06748        283.358052
0.935           -4.6075        8.117308       289.148866
1.045           -4.6075        9.20087        295.729811
1.155           -4.6075        10.261848      303.165908
1.265           -4.6075        11.358007      311.451171
1.375           -4.6075        12.495852      320.615859
1.485           -4.6075        13.679457      330.695442
1.595           -4.6075        14.913064      341.728895
1.705           -4.6075        16.207357      353.762593
1.815           -4.6075        17.643208      366.885549
1.925           -4.6075        19.153081      381.107381
2.035           -4.6075        20.743355      396.483515
2.145           -4.6075        22.420751      413.073843
2.255           -4.6075        24.192367      430.942959
2.365           -4.6075        26.065698      450.160406
2.475           -4.6075        27.998392      470.834872
2.585           -4.6075        29.977652      493.061934
2.695           -4.6075        32.06838       516.889157
2.805           -4.6075        34.278157      542.409961
2.915           -4.6075        36.614975      569.724337
3.025           -4.6075        39.087255      598.939218
3.135           -4.6075        41.804076      630.224772
3.245           -4.6075        44.767211      663.697897
3.355           -4.6075        47.919893      699.452354
3.465           -4.6075        51.275341      737.628618
3.575           -4.6075        54.84757       778.376447
3.685           -4.6075        58.651427      821.855405
3.795           -4.6075        62.702634      868.235415
3.905           -4.6075        66.786409      917.855516
4.015           -4.6075        71.107459      970.781083
4.125           -4.6075        75.691443      1027.211006
4.235           -4.6075        80.554134      1087.36523
4.345           -4.6075        85.712075      1151.477376
4.455           -4.6075        91.210984      1219.811998
4.565           -4.6075        97.402885      1292.815265
4.675           -4.6075        103.998282     1370.596431
4.785           -4.6075        111.022213     1453.453976
4.895           -4.6075        118.500882     1541.703904
5.005           -4.6075        126.46164      1635.680501
5.115           -4.6075        134.932967     1735.73707
5.225           -4.6075        143.714137     1842.402665
5.335           -4.6075        152.739855     1956.138719
5.445           -4.6075        162.29419      2077.185262
5.555           -4.6075        172.403055     2205.982541
5.665           -4.6075        183.092776     2342.993027
5.775           -4.6075        194.389955     2488.701739
5.885           -4.6075        206.779936     2643.874277
5.995           -4.6075        220.240483     2809.012021
6.105           -4.6075        234.491454     2984.499054
6.215           -4.6075        249.563912     3170.914146
6.325           -4.6075        265.487038     3368.856938
6.435           -4.6075        282.287338     3578.946544
6.545           -4.6075        299.987688     3801.819641
6.655           -4.6075        317.604007     4038.797378
6.765           -4.6075        335.9872       4289.98021
6.875           -4.6075        355.189326     4556.003613
6.985           -4.6075        375.205993     4837.538685
7.095           -4.6075        396.024245     5135.250349
7.205           -4.6075        417.726145     5449.851271
7.315           -4.6075        441.503233     5782.680201
7.425           -4.6075        466.053805     6133.611904
7.535           -4.6075        491.286414     6503.176153
7.645           -4.6075        517.080644     6891.831604
7.755           -4.6075        543.282203     7299.945677
7.865           -4.6075        569.697601     7727.771324
7.975           -4.6075        595.451938     8175.810224
8.085           -4.6075        620.019818     8644.12014
8.195           -4.6075        644.004303     9131.835386
8.305           -4.6075        667.077857     9638.388626
8.415           -4.6075        688.866757     10162.917823
8.525           -4.6075        708.950388     10704.223489
8.635           -4.6075        727.262665     11261.062578
8.745           -4.6075        742.933992     11831.255047
8.855           -4.6075        754.74718      12411.876913
8.965           -4.6075        761.985602     12999.890231
9.075           -4.6075        763.935077     13591.752461
9.185           -4.6075        759.921322     14183.425821
9.295           -4.6075        749.355798     14770.412448
9.405           -4.6075        732.847102     15346.808661
9.515           -4.6075        709.768075     15907.98006
9.625           -4.6075        680.332285     16448.51763
9.735           -4.6075        644.737321     16963.180235
9.845           -4.6075        603.384646     17446.982227
9.955           -4.6075        556.464303     17895.150809
10.065          -4.6075        502.127738     18302.322646
10.175          -4.6075        444.091771     18666.78675
10.285          -4.6075        383.543184     18986.463994
10.395          -4.6075        321.743153     19260.104705
10.505          -4.6075        259.551514     19487.209785
10.615          -4.6075        197.938333     19667.771354
10.725          -4.6075        140.115296     19800.678835
10.835          -4.6075        84.186288      19887.617586
10.945          -4.6075        29.365315      19929.785176
0.055           -4.5125        0.751231       261.452875
0.165           -4.5125        2.257354       262.141485
0.275           -4.5125        3.792309       263.516883
0.385           -4.5125        5.365995       265.579596
0.495           -4.5125        6.897834       268.373658
0.605           -4.5125        8.447714       271.88904
0.715           -4.5125        10.029784      276.1312
0.825           -4.5125        11.648983      281.116653
0.935           -4.5125        13.310377      286.864136
1.045           -4.5125        15.049603      293.411904
1.155           -4.5125        16.885198      300.790986
1.265           -4.5125        18.789573      309.010442
1.375           -4.5125        20.770467      318.102134
1.485           -4.5125        22.835906      328.10123
1.595           -4.5125        24.99429       339.046382
1.705           -4.5125        27.254423      350.979882
1.815           -4.5125        29.582887      363.97816
1.925           -4.5125        31.989621      378.091878
2.035           -4.5125        34.517807      393.351614
2.145           -4.5125        37.176917      409.81687
2.255           -4.5125        39.976909      427.551822
2.365           -4.5125        42.928263      446.625566
2.475           -4.5125        46.156737      467.17199
2.585           -4.5125        49.585022      489.224234
2.695           -4.5125        53.217674      512.863917
2.805           -4.5125        57.069669      538.183739
2.915           -4.5125        61.156869      565.282922
3.025           -4.5125        65.49607       594.267584
3.135           -4.5125        70.099495      625.255017
3.245           -4.5125        74.835474      658.477794
3.355           -4.5125        79.858165      693.966147
3.465           -4.5125        85.186245      731.859717
3.575           -4.5125        90.839419      772.307389
3.685           -4.5125        96.838469      815.467814
3.795           -4.5125        103.312898     861.565164
3.905           -4.5125        110.35347      910.813903
4.015           -4.5125        117.84816      963.335575
4.125           -4.5125        125.826604     1019.335788
4.235           -4.5125        134.320071     1079.03309
4.345           -4.5125        143.36152      1142.659656
4.455           -4.5125        152.985651     1210.461992
4.565           -4.5125        163.047648     1282.835039
4.675           -4.5125        173.57577      1360.06392
4.785           -4.5125        184.750631     1442.338383
4.895           -4.5125        196.609181     1529.973164
5.005           -4.5125        209.189863     1623.301289
5.115           -4.5125        222.532588     1722.674831
5.225           -4.5125        237.207354     1828.739023
5.335           -4.5125        252.846402     1941.674888
5.445           -4.5125        269.458321     2061.878108
5.555           -4.5125        287.094768     2189.787864
5.665           -4.5125        305.808383     2325.865781
5.775           -4.5125        325.652454     2470.596332
5.885           -4.5125        346.651594     2624.50761
5.995           -4.5125        368.17532      2788.625908
6.105           -4.5125        390.893786     2963.05412
6.215           -4.5125        414.850789     3148.372359
6.325           -4.5125        440.087667     3345.182244
6.435           -4.5125        466.642366     3554.105616
6.545           -4.5125        495.024726     3776.036856
6.655           -4.5125        525.503833     4011.765156
6.765           -4.5125        557.499663     4261.643772
6.875           -4.5125        591.021431     4526.352945
6.985           -4.5125        626.063554     4806.575954
7.095           -4.5125        662.602244     5102.992753
7.205           -4.5125        700.591549     5416.272216
7.315           -4.5125        739.22935      5747.557407
7.425           -4.5125        778.43849      6097.428603
7.535           -4.5125        818.678419     6466.036924
7.645           -4.5125        859.77953      6853.871671
7.755           -4.5125        901.528354     7261.33548
7.865           -4.5125        943.661284     7688.721413
7.975           -4.5125        987.305754     8137.086045
8.085           -4.5125        1030.621264    8605.578325
8.195           -4.5125        1072.977442    9093.901286
8.305           -4.5125        1113.735603    9601.563204
8.415           -4.5125        1152.154097    10127.781605
8.525           -4.5125        1187.385124    10671.437567
8.635           -4.5125        1218.455452    11231.02869
8.745           -4.5125        1243.216542    11804.985873
8.855           -4.5125        1262.069524    12390.14023
8.965           -4.5125        1273.990296    12983.47147
9.075           -4.5125        1277.957912    13581.426354
9.185           -4.5125        1272.999317    14179.920861
9.295           -4.5125        1257.67713     14774.292662
9.405           -4.5125        1230.422555    15359.109741
9.515           -4.5125        1191.207364    15928.891956
9.625           -4.5125        1139.938608    16478.041139
9.735           -4.5125        1076.976464    17000.987769
9.845           -4.5125        1003.157583    17492.408378
9.955           -4.5125        919.784088     17947.458307
10.065          -4.5125        830.502824     18360.575028
10.175          -4.5125        737.078534     18728.904935
10.285          -4.5125        640.250059     19051.151864
10.395          -4.5125        541.357349     19326.129324
10.505          -4.5125        441.856213     19553.529302
10.615          -4.5125        343.408458     19734.406095
10.725          -4.5125        243.443886     19867.007294
10.835          -4.5125        145.191254     19954.607605
10.945          -4.5125        47.15038       19996.135829
0.055           -4.4175        1.041203       258.370099
0.165           -4.4175        3.112233       259.121791
0.275           -4.4175        5.278734       260.425648
0.385           -4.4175        7.352375       262.445768
0.495           -4.4175        9.526517       265.210927
0.605           -4.4175        11.738405      268.67912
0.715           -4.4175        14.007557      272.865505
0.825           -4.4175        16.333171      277.789031
0.935           -4.4175        18.724425      283.466378
1.045           -4.4175        21.19051       289.918527
1.155           -4.4175        23.702386      297.19812
1.265           -4.4175        26.285496      305.322859
1.375           -4.4175        28.968706      314.310402
1.485           -4.4175        31.762157      324.1955
1.595           -4.4175        34.676496      335.016416
1.705           -4.4175        37.745037      346.825902
1.815           -4.4175        41.027038      359.693586
1.925           -4.4175        44.475328      373.638912
2.035           -4.4175        48.103906      388.71628
2.145           -4.4175        51.927512      404.984474
2.255           -4.4175        55.961678      422.506896
2.365           -4.4175        60.222794      441.351815
2.475           -4.4175        64.717874      461.601407
2.585           -4.4175        69.376859      483.402579
2.695           -4.4175        74.304005      506.774261
2.805           -4.4175        79.518102      531.808271
2.915           -4.4175        85.038991      558.602899
3.025           -4.4175        90.88763       587.263279
3.135           -4.4175        97.221443      617.964971
3.245           -4.4175        103.996674     650.798189
3.355           -4.4175        111.19734      685.870546
3.465           -4.4175        118.852484     723.320157
3.575           -4.4175        126.992851     763.294296
3.685           -4.4175        135.650975     805.949916
3.795           -4.4175        144.861267     851.454201
3.905           -4.4175        154.528474     900.092074
4.015           -4.4175        164.708634     952.034791
4.125           -4.4175        175.522677     1007.421665
4.235           -4.4175        187.009823     1066.469537
4.345           -4.4175        199.211298     1129.408823
4.455           -4.4175        212.264449     1196.526244
4.565           -4.4175        226.440302     1268.19439
4.675           -4.4175        241.523531     1344.561387
4.785           -4.4175        257.569387     1425.922085
4.895           -4.4175        274.635659     1512.588853
5.005           -4.4175        292.782655     1604.892371
5.115           -4.4175        312.073161     1703.182409
5.225           -4.4175        332.525378     1807.869794
5.335           -4.4175        353.801082     1919.655238
5.445           -4.4175        376.354179     2038.650387
5.555           -4.4175        400.249676     2165.293114
5.665           -4.4175        425.553778     2300.043992
5.775           -4.4175        452.333503     2443.38675
5.885           -4.4175        481.28444      2596.130279
5.995           -4.4175        512.137961     2758.65418
6.105           -4.4175        544.776979     2931.420321
6.215           -4.4175        579.271765     3115.010931
6.325           -4.4175        615.688935     3310.030984
6.435           -4.4175        654.089869     3517.107182
6.545           -4.4175        694.528802     3736.886483
6.655           -4.4175        736.437737     3970.499235
6.765           -4.4175        779.984068     4218.50357
6.875           -4.4175        825.541224     4481.324967
6.985           -4.4175        873.103858     4759.661585
7.095           -4.4175        922.645235     5054.211372
7.205           -4.4175        974.525792     5365.880141
7.315           -4.4175        1029.35894     5695.732751
7.425           -4.4175        1085.997531    6043.883751
7.535           -4.4175        1144.25093     6410.935571
7.645           -4.4175        1203.867465    6797.432101
7.755           -4.4175        1264.524047    7203.839897
7.865           -4.4175        1325.814784    7630.526101
7.975           -4.4175        1386.98439     8077.888584
8.085           -4.4175        1446.27323     8546.668389
8.195           -4.4175        1504.335752    9035.857572
8.305           -4.4175        1560.368269    9545.059791
8.415           -4.4175        1613.443191    10073.592934
8.525           -4.4175        1662.505169    10620.440753
8.635           -4.4175        1707.224413    11185.027081
8.745           -4.4175        1744.925716    11764.609664
8.855           -4.4175        1773.980817    12356.6882
8.965           -4.4175        1792.729991    12958.290803
9.075           -4.4175        1799.491996    13565.857633
9.185           -4.4175        1792.643437    14175.225275
9.295           -4.4175        1770.719734    14781.639619
9.405           -4.4175        1732.510159    15379.188098
9.515           -4.4175        1678.489724    15961.660223
9.625           -4.4175        1608.358373    16523.481353
9.735           -4.4175        1522.556912    17058.648448
9.845           -4.4175        1422.113145    17561.387756
9.955           -4.4175        1307.44737     18025.906035
10.065          -4.4175        1179.001373    18446.659174
10.175          -4.4175        1042.216622    18821.330131
10.285          -4.4175        900.152478     19147.896075
10.395          -4.4175        755.53068      19425.410256
10.505          -4.4175        611.028357     19653.759487
10.615          -4.4175        469.293645     19832.72001
10.725          -4.4175        335.972338     19962.618048
10.835          -4.4175        198.614911     20049.501219
10.945          -4.4175        65.112489      20091.74408
0.055           -4.3225        1.336512       254.261387
0.165           -4.3225        4.015036       254.9045
0.275           -4.3225        6.800559       256.336793
0.385           -4.3225        9.481894       258.258554
0.495           -4.3225        12.156802      261.058585
0.605           -4.3225        15.032887      264.374444
0.715           -4.3225        17.894634      268.493242
0.825           -4.3225        20.80822       273.34185
0.935           -4.3225        23.796672      278.932677
1.045           -4.3225        26.918171      285.308282
1.155           -4.3225        30.168787      292.484652
1.265           -4.3225        33.540273      300.478757
1.375           -4.3225        37.046506      309.321558
1.485           -4.3225        40.701047      319.046967
1.595           -4.3225        44.518428      329.692627
1.705           -4.3225        48.513941      341.299749
1.815           -4.3225        52.692067      353.923968
1.925           -4.3225        57.017016      367.654681
2.035           -4.3225        61.56243       382.500986
2.145           -4.3225        66.345738      398.52089
2.255           -4.3225        71.385286      415.776964
2.365           -4.3225        76.708266      434.338021
2.475           -4.3225        82.448385      454.331166
2.585           -4.3225        88.522922      475.785192
2.695           -4.3225        94.956499      498.784447
2.805           -4.3225        101.775161     523.419316
2.915           -4.3225        109.006473     549.786557
3.025           -4.3225        116.679612     577.989676
3.135           -4.3225        124.825463     608.139314
3.245           -4.3225        133.3861       640.43628
3.355           -4.3225        142.416511     674.980062
3.465           -4.3225        152.002061     711.868102
3.575           -4.3225        162.179098     751.245928
3.685           -4.3225        172.986001     793.268669
3.795           -4.3225        184.612076     838.161101
3.905           -4.3225        197.09866      886.109485
4.015           -4.3225        210.384227     937.249336
4.125           -4.3225        224.520492     991.781912
4.235           -4.3225        239.562015     1049.921247
4.345           -4.3225        255.566292     1111.894853
4.455           -4.3225        272.593854     1177.944435
4.565           -4.3225        290.670055     1248.370037
4.675           -4.3225        309.610708     1323.638115
4.785           -4.3225        329.729243     1403.838345
4.895           -4.3225        351.094205     1489.280516
5.005           -4.3225        373.777022     1580.292736
5.115           -4.3225        397.888957     1677.227664
5.225           -4.3225        424.032697     1780.708044
5.335           -4.3225        451.805567     1890.898281
5.445           -4.3225        481.29654      2008.211491
5.555           -4.3225        512.59696      2133.083243
5.665           -4.3225        545.800134     2265.972233
5.775           -4.3225        581.000797     2407.360856
5.885           -4.3225        618.294442     2557.755697
5.995           -4.3225        657.336664     2718.070129
6.105           -4.3225        698.345684     2888.715564
6.215           -4.3225        741.6311       3070.107072
6.325           -4.3225        787.273042     3262.853129
6.435           -4.3225        835.345872     3467.585366
6.545           -4.3225        886.604996     3685.266398
6.655           -4.3225        940.992712     3916.556242
6.765           -4.3225        998.103393     4161.925059
6.875           -4.3225        1057.962554    4422.083626
6.985           -4.3225        1120.571768    4697.753182
7.095           -4.3225        1185.903089    4989.660289
7.205           -4.3225        1253.89255     5298.530464
7.315           -4.3225        1324.161627    5625.29167
7.425           -4.3225        1395.681642    5971.228941
7.535           -4.3225        1469.230382    6336.260273
7.645           -4.3225        1544.515923    6720.989249
7.755           -4.3225        1621.16559     7125.951404
7.865           -4.3225        1699.032725    7551.780283
7.975           -4.3225        1778.563462    7999.459286
8.085           -4.3225        1857.630126    8468.391912
8.195           -4.3225        1935.309196    8958.565099
8.305           -4.3225        2010.504155    9469.738505
8.415           -4.3225        2081.930649    10001.397189
8.525           -4.3225        2148.105491    10552.698243
8.635           -4.3225        2207.342054    11122.411765
8.745           -4.3225        2256.161017    11709.374331
8.855           -4.3225        2294.234403    12310.415159
8.965           -4.3225        2319.663838    12922.649549
9.075           -4.3225        2330.396289    13542.525315
9.185           -4.3225        2324.433078    14165.813648
9.295           -4.3225        2299.578224    14788.198637
9.405           -4.3225        2252.412645    15402.634793
9.515           -4.3225        2182.840428    16003.171188
9.625           -4.3225        2090.475326    16583.187895
9.735           -4.3225        1975.815356    17135.944718
9.845           -4.3225        1840.351255    17654.883601
9.955           -4.3225        1686.582236    18133.986304
10.065          -4.3225        1519.116475    18567.054639
10.175          -4.3225        1343.4536      18949.614685
10.285          -4.3225        1161.81349     19281.086511
10.395          -4.3225        977.695327     19560.723227
10.505          -4.3225        793.348038     19788.885763
10.615          -4.3225        607.312234     19965.556098
10.725          -4.3225        427.364226     20099.221357
10.835          -4.3225        254.126712     20180.42737
10.945          -4.3225        83.687002      20223.167588
0.055           -4.2275        1.630034       249.132338
0.165           -4.2275        4.895595       249.759134
0.275           -4.2275        8.087904       251.195376
0.385           -4.2275        11.453514      253.047198
0.495           -4.2275        14.792941      255.678232
0.605           -4.2275        18.254243      259.057412
0.715           -4.2275        21.748018      263.104066
0.825           -4.2275        25.344289      267.851792
0.935           -4.2275        29.041006      273.326951
1.045           -4.2275        32.851377      279.549048
1.155           -4.2275        36.772186      286.559941
1.265           -4.2275        40.804457      294.397089
1.375           -4.2275        44.991905      303.067841