% Model:              PurmonSmall_traj-grid.mph
% Version:            COMSOL 4.3.0.151
% Date:               Mar 5 2014, 16:07
% Dimension:          2
% Nodes:              10000
% Expressions:        2
% Description:        , 
% Length unit:        mm
% r             z              es.Er (V/m) @ TopV=10 es.Ez (V/m) @ TopV=10
0.055           -4.7025        -0.238365      -52937.714453
0.165           -4.7025        -0.585659      -52938.515496
0.275           -4.7025        -0.968661      -52940.13546
0.385           -4.7025        -1.316408      -52942.588707
0.495           -4.7025        -1.652723      -52945.879849
0.605           -4.7025        -1.990911      -52950.013161
0.715           -4.7025        -2.334239      -52955.00321
0.825           -4.7025        -2.684925      -52960.868392
0.935           -4.7025        -3.043774      -52967.631409
1.045           -4.7025        -3.428042      -52975.328505
1.155           -4.7025        -3.884833      -52984.017265
1.265           -4.7025        -4.360202      -52993.698222
1.375           -4.7025        -4.856459      -53004.40973
1.485           -4.7025        -5.376025      -53016.194213
1.595           -4.7025        -5.921449      -53029.098361
1.705           -4.7025        -6.495425      -53043.173323
1.815           -4.7025        -7.017645      -53058.527651
1.925           -4.7025        -7.548246      -53075.186167
2.035           -4.7025        -8.103754      -53093.206248
2.145           -4.7025        -8.68589       -53112.660388
2.255           -4.7025        -9.296451      -53133.626955
2.365           -4.7025        -9.937318      -53156.190537
2.475           -4.7025        -10.711799     -53180.50284
2.585           -4.7025        -11.576526     -53206.634562
2.695           -4.7025        -12.498551     -53234.670579
2.805           -4.7025        -13.482683     -53264.725923
2.915           -4.7025        -14.53408      -53296.92418
3.025           -4.7025        -15.658291     -53331.398046
3.135           -4.7025        -16.793095     -53368.333247
3.245           -4.7025        -17.866109     -53407.933597
3.355           -4.7025        -19.000777     -53450.288127
3.465           -4.7025        -20.200876     -53495.574825
3.575           -4.7025        -21.470382     -53543.984532
3.685           -4.7025        -22.813484     -53595.721834
3.795           -4.7025        -24.301189     -53651.045963
3.905           -4.7025        -26.130804     -53710.305376
4.015           -4.7025        -28.096273     -53773.627144
4.125           -4.7025        -30.20855      -53841.284575
4.235           -4.7025        -32.479475     -53913.570632
4.345           -4.7025        -34.921852     -53990.799336
4.455           -4.7025        -37.549522     -54073.307263
4.565           -4.7025        -39.983813     -54161.706708
4.675           -4.7025        -42.500979     -54256.219097
4.785           -4.7025        -45.173264     -54357.223008
4.895           -4.7025        -48.010123     -54465.168553
5.005           -4.7025        -51.021516     -54580.538276
5.115           -4.7025        -54.217941     -54703.84943
5.225           -4.7025        -58.135666     -54835.968791
5.335           -4.7025        -62.554596     -54977.351043
5.445           -4.7025        -67.318244     -55128.533681
5.555           -4.7025        -72.454144     -55290.207165
5.665           -4.7025        -77.991836     -55463.110967
5.775           -4.7025        -83.962939     -55648.036665
5.885           -4.7025        -90.025867     -55846.069994
5.995           -4.7025        -95.804668     -56058.383364
6.105           -4.7025        -101.945582    -56285.552076
6.215           -4.7025        -108.468813    -56528.620286
6.325           -4.7025        -115.395154    -56788.700537
6.435           -4.7025        -122.745931    -57066.976262
6.545           -4.7025        -130.921324    -57364.930684
6.655           -4.7025        -140.979002    -57684.505534
6.765           -4.7025        -151.788226    -58026.42436
6.875           -4.7025        -163.3912      -58392.178703
6.985           -4.7025        -175.827531    -58783.330319
7.095           -4.7025        -189.132333    -59201.50584
7.205           -4.7025        -203.333765    -59648.38865
7.315           -4.7025        -216.354934    -60127.037485
7.425           -4.7025        -229.650797    -60638.28668
7.535           -4.7025        -243.55917     -61183.672134
7.645           -4.7025        -258.06359     -61764.922591
7.755           -4.7025        -273.137595    -62383.698713
7.865           -4.7025        -288.743356    -63041.545729
7.975           -4.7025        -307.102379    -63741.216558
8.085           -4.7025        -326.903238    -64483.1003
8.195           -4.7025        -347.007467    -65267.371317
8.305           -4.7025        -367.127445    -66094.309153
8.415           -4.7025        -386.89735     -66963.630138
8.525           -4.7025        -405.865791    -67874.362534
8.635           -4.7025        -422.842036    -68825.09092
8.745           -4.7025        -436.112763    -69813.660913
8.855           -4.7025        -447.625031    -70834.619702
8.965           -4.7025        -456.994252    -71882.679311
9.075           -4.7025        -463.827641    -72951.248939
9.185           -4.7025        -467.733026    -74032.411088
9.295           -4.7025        -467.484962    -75116.492873
9.405           -4.7025        -462.346644    -76193.097676
9.515           -4.7025        -451.178663    -77250.200084
9.625           -4.7025        -433.762909    -78275.87435
9.735           -4.7025        -410.190331    -79258.126636
9.845           -4.7025        -380.888467    -80185.399743
9.955           -4.7025        -346.610202    -81047.102238
10.065          -4.7025        -313.913919    -81830.555132
10.175          -4.7025        -279.959802    -82531.20223
10.285          -4.7025        -244.87411     -83144.594453
10.395          -4.7025        -209.129591    -83668.075172
10.505          -4.7025        -173.173768    -84100.877698
10.615          -4.7025        -137.376846    -84443.688861
10.725          -4.7025        -98.501416     -84696.128082
10.835          -4.7025        -58.956504     -84861.631444
10.945          -4.7025        -22.275997     -84943.41451
0.055           -4.6075        -0.529305      -52936.552022
0.165           -4.6075        -1.627714      -52937.360615
0.275           -4.6075        -2.573471      -52938.936752
0.385           -4.6075        -3.649881      -52941.370727
0.495           -4.6075        -4.748522      -52944.645374
0.605           -4.6075        -5.876634      -52948.761047
0.715           -4.6075        -7.032229      -52953.730054
0.825           -4.6075        -8.219766      -52959.570809
0.935           -4.6075        -9.442668      -52966.305917
1.045           -4.6075        -10.705621     -52973.96156
1.155           -4.6075        -11.943073     -52982.614169
1.265           -4.6075        -13.222486     -52992.257412
1.375           -4.6075        -14.551566     -53002.927364
1.485           -4.6075        -15.935239     -53014.6663
1.595           -4.6075        -17.378647     -53027.520738
1.705           -4.6075        -18.894558     -53041.546045
1.815           -4.6075        -20.578113     -53056.847677
1.925           -4.6075        -22.350584     -53073.438469
2.035           -4.6075        -24.219844     -53091.385055
2.145           -4.6075        -26.194239     -53110.759599
2.255           -4.6075        -28.282625     -53131.640112
2.365           -4.6075        -30.494422     -53154.110796
2.475           -4.6075        -32.780076     -53178.302715
2.585           -4.6075        -35.125161     -53204.331877
2.695           -4.6075        -37.606839     -53232.258073
2.805           -4.6075        -40.234919     -53262.195905
2.915           -4.6075        -43.019814     -53294.268493
3.025           -4.6075        -45.972589     -53328.608036
3.135           -4.6075        -49.225581     -53365.42341
3.245           -4.6075        -52.782909     -53404.860954
3.355           -4.6075        -56.578708     -53447.040738
3.465           -4.6075        -60.631095     -53492.139918
3.575           -4.6075        -64.959518     -53540.348437
3.685           -4.6075        -69.584855     -53591.869909
3.795           -4.6075        -74.529531     -53646.922571
3.905           -4.6075        -79.533721     -53705.935556
4.015           -4.6075        -84.851063     -53769.004301
4.125           -4.6075        -90.516246     -53836.391593
4.235           -4.6075        -96.553316     -53908.389248
4.345           -4.6075        -102.987945    -53985.310063
4.455           -4.6075        -109.884384    -54067.510743
4.565           -4.6075        -117.69531     -54155.58024
4.675           -4.6075        -126.067864    -54249.69429
4.785           -4.6075        -135.044593    -54350.270726
4.895           -4.6075        -144.671264    -54457.757527
5.005           -4.6075        -154.997073    -54572.634948
5.115           -4.6075        -166.074887    -54695.41781
5.225           -4.6075        -177.654763    -54826.868079
5.335           -4.6075        -189.669988    -54967.670534
5.445           -4.6075        -202.506298    -55118.234113
5.555           -4.6075        -216.219923    -55279.246827
5.665           -4.6075        -230.870515    -55451.445618
5.775           -4.6075        -246.521233    -55635.619469
5.885           -4.6075        -263.898049    -55832.976797
5.995           -4.6075        -283.01953     -56044.386575
6.105           -4.6075        -303.544924    -56270.589262
6.215           -4.6075        -325.572242    -56512.626007
6.325           -4.6075        -349.203758    -56771.606625
6.435           -4.6075        -374.545354    -57048.712273
6.545           -4.6075        -401.705558    -57345.197667
6.655           -4.6075        -429.220205    -57663.471937
6.765           -4.6075        -458.471367    -58004.069975
6.875           -4.6075        -489.599792    -58368.44151
6.985           -4.6075        -522.685544    -58758.151865
7.095           -4.6075        -557.801178    -59174.833254
7.205           -4.6075        -595.220486    -59620.300419
7.315           -4.6075        -637.197062    -60097.521579
7.425           -4.6075        -681.642035    -60607.103795
7.535           -4.6075        -728.541848    -61150.831518
7.645           -4.6075        -777.831648    -61730.466888
7.755           -4.6075        -829.381154    -62347.712955
7.865           -4.6075        -882.978215    -63004.167722
7.975           -4.6075        -936.926604    -63702.158501
8.085           -4.6075        -990.26577     -64443.185044
8.195           -4.6075        -1044.224779   -65226.93345
8.305           -4.6075        -1098.201499   -66053.769001
8.415           -4.6075        -1151.45954    -66923.502463
8.525           -4.6075        -1203.117957   -67835.263301
8.635           -4.6075        -1253.547023   -68788.354797
8.745           -4.6075        -1300.716107   -69779.735345
8.855           -4.6075        -1341.550611   -70804.552152
8.965           -4.6075        -1374.182625   -71857.597913
9.075           -4.6075        -1396.654646   -72932.317512
9.185           -4.6075        -1407.016066   -74020.766271
9.295           -4.6075        -1403.450364   -75113.636221
9.405           -4.6075        -1385.714595   -76198.769851
9.515           -4.6075        -1352.925851   -77265.142865
9.625           -4.6075        -1305.330579   -78300.219826
9.735           -4.6075        -1243.148365   -79291.640007
9.845           -4.6075        -1167.174532   -80227.458997
9.955           -4.6075        -1077.887486   -81096.194728
10.065          -4.6075        -972.158135    -81885.654545
10.175          -4.6075        -857.791983    -82590.970037
10.285          -4.6075        -737.93937     -83207.392477
10.395          -4.6075        -615.886428    -83732.415597
10.505          -4.6075        -493.990079    -84165.558619
10.615          -4.6075        -374.577887    -84507.74148
10.725          -4.6075        -263.881175    -84758.144633
10.835          -4.6075        -158.014092    -84921.109543
10.945          -4.6075        -55.009853     -84999.937644
0.055           -4.5125        -0.873086      -52934.105065
0.165           -4.5125        -2.623579      -52934.905264
0.275           -4.5125        -4.40772       -52936.503589
0.385           -4.5125        -6.23726       -52938.900752
0.495           -4.5125        -8.018587      -52942.148127
0.605           -4.5125        -9.821446      -52946.234285
0.715           -4.5125        -11.662424     -52951.165854
0.825           -4.5125        -13.547423     -52956.962386
0.935           -4.5125        -15.482499     -52963.64609
1.045           -4.5125        -17.50937      -52971.261975
1.155           -4.5125        -19.649972     -52979.846777
1.265           -4.5125        -21.872388     -52989.411738
1.375           -4.5125        -24.185938     -52999.994753
1.485           -4.5125        -26.600316     -53011.637703
1.595           -4.5125        -29.125711     -53024.386681
1.705           -4.5125        -31.772839     -53038.292195
1.815           -4.5125        -34.503045     -53053.445021
1.925           -4.5125        -37.328364     -53069.906003
2.035           -4.5125        -40.299883     -53087.712557
2.145           -4.5125        -43.429359     -53106.936313
2.255           -4.5125        -46.729218     -53127.654707
2.365           -4.5125        -50.212608     -53149.951323
2.475           -4.5125        -54.029388     -53173.986513
2.585           -4.5125        -58.089659     -53199.802661
2.695           -4.5125        -62.400141     -53227.499581
2.805           -4.5125        -66.98017      -53257.190819
2.915           -4.5125        -71.850392     -53288.998355
3.025           -4.5125        -77.032866     -53323.053155
3.135           -4.5125        -82.54446      -53359.500474
3.245           -4.5125        -88.23047      -53398.625405
3.355           -4.5125        -94.277231     -53440.47128
3.465           -4.5125        -100.710353    -53485.213891
3.575           -4.5125        -107.557162    -53533.041718
3.685           -4.5125        -114.846835    -53584.156811
3.795           -4.5125        -122.742234    -53638.842564
3.905           -4.5125        -131.362368    -53697.374304
4.015           -4.5125        -140.57711     -53759.916649
4.125           -4.5125        -150.430691    -53826.739234
4.235           -4.5125        -160.97062     -53898.131078
4.345           -4.5125        -172.247942    -53974.40196
4.455           -4.5125        -184.317502    -54055.883906
4.565           -4.5125        -197.010935    -54143.102683
4.675           -4.5125        -210.375686    -54236.452835
4.785           -4.5125        -224.65222     -54336.213394
4.895           -4.5125        -239.905062    -54442.82884
5.005           -4.5125        -256.203192    -54556.775722
5.115           -4.5125        -273.620314    -54678.564933
5.225           -4.5125        -292.939419    -54809.099609
5.335           -4.5125        -313.715855    -54948.699998
5.445           -4.5125        -335.997132    -55097.973946
5.555           -4.5125        -359.89428     -55257.603467
5.665           -4.5125        -385.525818    -55428.319266
5.775           -4.5125        -413.017998    -55610.903907
5.885           -4.5125        -442.462661    -55806.225719
5.995           -4.5125        -473.050499    -56015.896428
6.105           -4.5125        -505.762629    -56240.248219
6.215           -4.5125        -540.737726    -56480.317316
6.325           -4.5125        -578.120009    -56737.209046
6.435           -4.5125        -618.058487    -57012.100706
6.545           -4.5125        -661.449821    -57306.62277
6.655           -4.5125        -708.891081    -57622.332149
6.765           -4.5125        -759.629616    -57960.175839
6.875           -4.5125        -813.838482    -58321.651057
6.985           -4.5125        -871.68192     -58708.330991
7.095           -4.5125        -933.309162    -59121.861048
7.205           -4.5125        -998.846588    -59563.952594
7.315           -4.5125        -1067.125735   -60037.284186
7.425           -4.5125        -1138.164608   -60543.666367
7.535           -4.5125        -1212.922214   -61084.212301
7.645           -4.5125        -1291.309253   -61660.739429
7.755           -4.5125        -1373.152004   -62275.01944
7.865           -4.5125        -1458.173112   -62928.734166
7.975           -4.5125        -1549.169781   -63625.2468
8.085           -4.5125        -1642.662078   -64364.31425
8.195           -4.5125        -1737.566595   -65146.814637
8.305           -4.5125        -1832.733106   -65973.319428
8.415           -4.5125        -1926.716181   -66843.870512
8.525           -4.5125        -2017.745498   -67757.847873
8.635           -4.5125        -2103.630351   -68713.852702
8.745           -4.5125        -2178.86946    -69710.855838
8.855           -4.5125        -2244.367507   -70743.219276
8.965           -4.5125        -2297.445434   -71805.871287
9.075           -4.5125        -2335.305268   -72892.323391
9.185           -4.5125        -2355.144963   -73994.603987
9.295           -4.5125        -2353.60726    -75103.423581
9.405           -4.5125        -2326.459941   -76207.119036
9.515           -4.5125        -2272.119119   -77292.967364
9.625           -4.5125        -2189.658811   -78347.956736
9.735           -4.5125        -2079.378141   -79358.821168
9.845           -4.5125        -1942.933194   -80312.648087
9.955           -4.5125        -1783.352767   -81197.549374
10.065          -4.5125        -1608.678832   -82000.489654
10.175          -4.5125        -1423.867653   -82714.352419
10.285          -4.5125        -1231.668281   -83335.915113
10.395          -4.5125        -1035.864294   -83862.86515
10.505          -4.5125        -840.317161    -84295.278025
10.615          -4.5125        -649.074019    -84636.439529
10.725          -4.5125        -457.535229    -84884.468858
10.835          -4.5125        -271.80036     -85047.315941
10.945          -4.5125        -88.059988     -85124.062044
0.055           -4.4175        -1.210015      -52930.522369
0.165           -4.4175        -3.616904      -52931.395661
0.275           -4.4175        -6.134946      -52932.910575
0.385           -4.4175        -8.545551      -52935.257744
0.495           -4.4175        -11.073527     -52938.470849
0.605           -4.4175        -13.646204     -52942.501261
0.715           -4.4175        -16.286464     -52947.366876
0.825           -4.4175        -18.99361      -52953.090053
0.935           -4.4175        -21.778578     -52959.690584
1.045           -4.4175        -24.652346     -52967.193343
1.155           -4.4175        -27.581467     -52975.660212
1.265           -4.4175        -30.595769     -52985.11252
1.375           -4.4175        -33.729269     -52995.571525
1.485           -4.4175        -36.994213     -53007.07857
1.595           -4.4175        -40.403498     -53019.67924
1.705           -4.4175        -43.996553     -53033.436104
1.815           -4.4175        -47.843856     -53048.431928
1.925           -4.4175        -51.890767     -53064.690855
2.035           -4.4175        -56.154554     -53082.278133
2.145           -4.4175        -60.653486     -53101.264414
2.255           -4.4175        -65.406923     -53121.726071
2.365           -4.4175        -70.435416     -53143.745535
2.475           -4.4175        -75.748889     -53167.421963
2.585           -4.4175        -81.265976     -53192.932177
2.695           -4.4175        -87.111278     -53220.301512
2.805           -4.4175        -93.309046     -53249.642225
2.915           -4.4175        -99.885087     -53281.074917
3.025           -4.4175        -106.866887    -53314.72907
3.135           -4.4175        -114.445725    -53350.818346
3.245           -4.4175        -122.574503    -53389.457625
3.355           -4.4175        -131.237757    -53430.782245
3.465           -4.4175        -140.475176    -53474.965512
3.575           -4.4175        -150.329276    -53522.19323
3.685           -4.4175        -160.845623    -53572.664552
3.795           -4.4175        -172.073066    -53626.592917
3.905           -4.4175        -183.90553     -53684.338263
4.015           -4.4175        -196.416987    -53746.126031
4.125           -4.4175        -209.764899    -53812.143008
4.235           -4.4175        -224.008777    -53882.67479
4.345           -4.4175        -239.212316    -53958.027504
4.455           -4.4175        -255.559936    -54038.579241
4.565           -4.4175        -273.419089    -54124.826408
4.675           -4.4175        -292.537744    -54216.988485
4.785           -4.4175        -313.009244    -54315.474046
4.895           -4.4175        -334.933827    -54420.721175
5.005           -4.4175        -358.419087    -54533.199587
5.115           -4.4175        -383.580471    -54653.412892
5.225           -4.4175        -410.485832    -54781.953759
5.335           -4.4175        -438.731575    -54919.824489
5.445           -4.4175        -468.951095    -55067.251432
5.555           -4.4175        -501.283876    -55224.909219
5.665           -4.4175        -535.878329    -55393.520902
5.775           -4.4175        -572.892069    -55573.861173
5.885           -4.4175        -613.376032    -55767.160406
5.995           -4.4175        -657.086002    -55974.131852
6.105           -4.4175        -703.949696    -56195.596747
6.215           -4.4175        -754.184425    -56432.581925
6.325           -4.4175        -808.017327    -56686.184078
6.435           -4.4175        -865.684212    -56957.57307
6.545           -4.4175        -927.427828    -57247.994996
6.655           -4.4175        -992.603127    -57559.507782
6.765           -4.4175        -1061.572024   -57893.385608
6.875           -4.4175        -1135.102723   -58250.703187
6.985           -4.4175        -1213.404732   -58633.042883
7.095           -4.4175        -1296.670418   -59042.065026
7.205           -4.4175        -1385.755689   -59479.822732
7.315           -4.4175        -1482.234766   -59948.865172
7.425           -4.4175        -1584.384116   -60450.174827
7.535           -4.4175        -1692.20474    -60985.6534
7.645           -4.4175        -1805.593286   -61557.214332
7.755           -4.4175        -1924.312908   -62166.752107
7.865           -4.4175        -2047.959076   -62816.1026
7.975           -4.4175        -2175.487058   -63507.298064
8.085           -4.4175        -2303.504894   -64243.526884
8.195           -4.4175        -2433.502463   -65024.15389
8.305           -4.4175        -2564.040585   -65850.010598
8.415           -4.4175        -2693.325686   -66721.428727
8.525           -4.4175        -2819.175893   -67638.103202
8.635           -4.4175        -2941.57979    -68600.934157
8.745           -4.4175        -3054.33308    -69606.014441
8.855           -4.4175        -3153.188509   -70649.671825
8.965           -4.4175        -3233.841311   -71727.125757
9.075           -4.4175        -3291.705017   -72832.049184
9.185           -4.4175        -3322.109542   -73956.442194
9.295           -4.4175        -3320.575278   -75090.574942
9.405           -4.4175        -3282.251235   -76222.160573
9.515           -4.4175        -3207.290818   -77336.903064
9.625           -4.4175        -3094.57316    -78421.373888
9.735           -4.4175        -2944.422457   -79461.108821
9.845           -4.4175        -2758.822576   -80441.898803
9.955           -4.4175        -2539.013878   -81349.579555
10.065          -4.4175        -2286.778515   -82170.646529
10.175          -4.4175        -2014.820689   -82898.673754
10.285          -4.4175        -1731.316397   -83528.878983
10.395          -4.4175        -1443.751319   -84059.534255
10.505          -4.4175        -1159.198155   -84491.414923
10.615          -4.4175        -883.833773    -84826.070839
10.725          -4.4175        -628.827695    -85065.984582
10.835          -4.4175        -370.002984    -85225.514447
10.945          -4.4175        -121.0774      -85302.217901
0.055           -4.3225        -1.553058      -52925.74772
0.165           -4.3225        -4.665653      -52926.494663
0.275           -4.3225        -7.902879      -52928.158336
0.385           -4.3225        -11.019536     -52930.390579
0.495           -4.3225        -14.129714     -52933.643158
0.605           -4.3225        -17.474482     -52937.495465
0.715           -4.3225        -20.803904     -52942.281121
0.825           -4.3225        -24.195097     -52947.915533
0.935           -4.3225        -27.675123     -52954.413501
1.045           -4.3225        -31.312011     -52961.824858
1.155           -4.3225        -35.101843     -52970.168891
1.265           -4.3225        -39.035339     -52979.465908
1.375           -4.3225        -43.129174     -52989.752641
1.485           -4.3225        -47.399727     -53001.069382
1.595           -4.3225        -51.864599     -53013.460898
1.705           -4.3225        -56.542373     -53026.976265
1.815           -4.3225        -61.439396     -53041.681515
1.925           -4.3225        -66.514293     -53057.68299
2.035           -4.3225        -71.854288     -53074.992549
2.145           -4.3225        -77.480973     -53093.679787
2.255           -4.3225        -83.417198     -53113.819937
2.365           -4.3225        -89.695977     -53135.49549
2.475           -4.3225        -96.478248     -53158.858835
2.585           -4.3225        -103.667969    -53183.94656
2.695           -4.3225        -111.296599    -53210.86116
2.805           -4.3225        -119.397667    -53239.712804
2.915           -4.3225        -128.006939    -53270.619832
3.025           -4.3225        -137.162593    -53303.709286
3.135           -4.3225        -146.905414    -53339.117488
3.245           -4.3225        -157.172762    -53377.089589
3.355           -4.3225        -168.032335    -53417.752189
3.465           -4.3225        -179.592608    -53461.228529
3.575           -4.3225        -191.903768    -53507.701517
3.685           -4.3225        -205.019462    -53557.367208
3.795           -4.3225        -219.176922    -53610.505134
3.905           -4.3225        -234.442834    -53667.357208
4.015           -4.3225        -250.751684    -53728.10128
4.125           -4.3225        -268.180174    -53792.998635
4.235           -4.3225        -286.81063     -53862.329315
4.345           -4.3225        -306.731424    -53936.393462
4.455           -4.3225        -328.037433    -54015.512763
4.565           -4.3225        -350.789522    -54100.084425
4.675           -4.3225        -374.774975    -54190.732265
4.785           -4.3225        -400.413061    -54287.600509
4.895           -4.3225        -427.822347    -54391.120282
5.005           -4.3225        -457.12977     -54501.7539
5.115           -4.3225        -488.508579    -54619.994758
5.225           -4.3225        -522.826972    -54746.71684
5.335           -4.3225        -559.6049      -54882.203218
5.445           -4.3225        -599.023248    -55027.071665
5.555           -4.3225        -641.275457    -55181.984729
5.665           -4.3225        -686.568093    -55347.652858
5.775           -4.3225        -735.121346    -55524.837697
5.885           -4.3225        -787.16942     -55714.355541
5.995           -4.3225        -842.399736    -55917.618227
6.105           -4.3225        -901.16484     -56135.403044
6.215           -4.3225        -964.050858    -56368.473355
6.325           -4.3225        -1031.327854   -56617.916088
6.435           -4.3225        -1103.276074   -56884.892415
6.545           -4.3225        -1181.208859   -57171.04229
6.655           -4.3225        -1265.412287   -57477.769344
6.765           -4.3225        -1355.465554   -57806.134025
6.875           -4.3225        -1451.687176   -58157.642689
6.985           -4.3225        -1554.38497    -58533.889904
7.095           -4.3225        -1663.846488   -58936.558112
7.205           -4.3225        -1780.326822   -59367.415471
7.315           -4.3225        -1903.704636   -59828.64135
7.425           -4.3225        -2032.424204   -60323.406382
7.535           -4.3225        -2168.190718   -60852.334541
7.645           -4.3225        -2310.901565   -61417.442603
7.755           -4.3225        -2460.304752   -62020.75473
7.865           -4.3225        -2616.452574   -62664.495767
7.975           -4.3225        -2781.425137   -63352.11431
8.085           -4.3225        -2951.170759   -64083.898591
8.195           -4.3225        -3124.246678   -64861.417548
8.305           -4.3225        -3298.755568   -65685.919795
8.415           -4.3225        -3472.274908   -66558.213358
8.525           -4.3225        -3641.789896   -67478.520949
8.635           -4.3225        -3803.637109   -68446.309474
8.745           -4.3225        -3949.742375   -69461.675741
8.855           -4.3225        -4078.337986   -70519.851816
8.965           -4.3225        -4184.784088   -71616.176579
9.075           -4.3225        -4263.490857   -72744.553836
9.185           -4.3225        -4308.732343   -73897.028067
9.295           -4.3225        -4315.145411   -75065.573058
9.405           -4.3225        -4272.762118   -76234.685384
9.515           -4.3225        -4179.10443    -77390.55637
9.625           -4.3225        -4031.750022   -78517.504537
9.735           -4.3225        -3830.666345   -79599.032907
9.845           -4.3225        -3578.640242   -80618.67146
9.955           -4.3225        -3281.445402   -81561.022044
10.065          -4.3225        -2949.913015   -82410.681212
10.175          -4.3225        -2598.284307   -83156.327872
10.285          -4.3225        -2233.678923   -83796.140407
10.395          -4.3225        -1865.657091   -84328.942275