% Model:              PurmonSmall_traj-grid.mph
% Version:            COMSOL 4.3.0.151
% Date:               Mar 5 2014, 16:08
% Dimension:          2
% Nodes:              10000
% Expressions:        2
% Description:        , 
% Length unit:        mm
% r             z              es.Er (V/m) @ TopV=2 es.Ez (V/m) @ TopV=2
0.055           -4.7025        0.068053       -16175.379254
0.165           -4.7025        0.167197       -16175.150555
0.275           -4.7025        0.276505       -16174.688082
0.385           -4.7025        0.375718       -16173.987815
0.495           -4.7025        0.471613       -16173.048534
0.605           -4.7025        0.567981       -16171.869165
0.715           -4.7025        0.665745       -16170.445729
0.825           -4.7025        0.765522       -16168.773199
0.935           -4.7025        0.867527       -16166.845365
1.045           -4.7025        0.976619       -16164.652238
1.155           -4.7025        1.106135       -16162.177806
1.265           -4.7025        1.240702       -16159.422351
1.375           -4.7025        1.380929       -16156.375466
1.485           -4.7025        1.527453       -16153.025672
1.595           -4.7025        1.680938       -16149.360374
1.705           -4.7025        1.842079       -16145.36582
1.815           -4.7025        1.988374       -16141.012344
1.925           -4.7025        2.136619       -16136.293814
2.035           -4.7025        2.291453       -16131.195173
2.145           -4.7025        2.453301       -16125.697269
2.255           -4.7025        2.622603       -16119.779507
2.365           -4.7025        2.799814       -16113.419779
2.475           -4.7025        3.013108       -16106.577825
2.585           -4.7025        3.250404       -16099.235912
2.695           -4.7025        3.502324       -16091.372826
2.805           -4.7025        3.769954       -16082.959358
2.915           -4.7025        4.054434       -16073.964389
3.025           -4.7025        4.356961       -16064.354805
3.135           -4.7025        4.660812       -16054.084011
3.245           -4.7025        4.946202       -16043.101051
3.355           -4.7025        5.246329       -16031.386661
3.465           -4.7025        5.561921       -16018.898422
3.575           -4.7025        5.893725       -16005.591454
3.685           -4.7025        6.242509       -15991.418323
3.795           -4.7025        6.62558        -15976.319034
3.905           -4.7025        7.092888       -15960.211676
4.015           -4.7025        7.5899         -15943.073581
4.125           -4.7025        8.118299       -15924.84582
4.235           -4.7025        8.6798         -15905.466548
4.345           -4.7025        9.276131       -15884.870967
4.455           -4.7025        9.90903        -15862.991305
4.565           -4.7025        10.488138      -15839.698356
4.675           -4.7025        11.07776       -15814.958114
4.785           -4.7025        11.695177      -15788.704115
4.895           -4.7025        12.341181      -15760.856547
5.005           -4.7025        13.016522      -15731.333002
5.115           -4.7025        13.721899      -15700.048662
5.225           -4.7025        14.566348      -15666.851466
5.335           -4.7025        15.499075      -15631.683517
5.445           -4.7025        16.47916       -15594.479253
5.555           -4.7025        17.506917      -15555.14754
5.665           -4.7025        18.582214      -15513.597096
5.775           -4.7025        19.704377      -15469.73723
5.885           -4.7025        20.809777      -15423.439561
5.995           -4.7025        21.821266      -15374.570146
6.105           -4.7025        22.860249      -15323.124528
6.215           -4.7025        23.924742      -15269.025975
6.325           -4.7025        25.012359      -15212.20476
6.435           -4.7025        26.12028       -15152.599965
6.545           -4.7025        27.286752      -15090.13609
6.655           -4.7025        28.64763       -15024.690225
6.765           -4.7025        30.015435      -14956.352188
6.875           -4.7025        31.378563      -14885.122491
6.985           -4.7025        32.72341       -14811.02356
7.095           -4.7025        34.034256      -14734.102867
7.205           -4.7025        35.29319       -14654.436208
7.315           -4.7025        36.335613      -14572.044925
7.425           -4.7025        37.26459       -14487.148587
7.535           -4.7025        38.11716       -14399.965363
7.645           -4.7025        38.880392      -14310.725306
7.755           -4.7025        39.540922      -14219.702599
7.865           -4.7025        40.085064      -14127.217143
7.975           -4.7025        40.498155      -14033.628415
8.085           -4.7025        40.735866      -13939.36885
8.195           -4.7025        40.725626      -13844.933603
8.305           -4.7025        40.447063      -13750.82252
8.415           -4.7025        39.885287      -13657.5659
8.525           -4.7025        39.032855      -13565.714768
8.635           -4.7025        37.983305      -13475.88912
8.745           -4.7025        36.809255      -13388.682731
8.855           -4.7025        35.464282      -13304.568859
8.965           -4.7025        33.96708       -13224.020229
9.075           -4.7025        32.340448      -13147.442867
9.185           -4.7025        30.610891      -13075.158674
9.295           -4.7025        28.736504      -13007.435201
9.405           -4.7025        26.544936      -12944.517637
9.515           -4.7025        24.370516      -12886.23358
9.625           -4.7025        22.26433       -12832.480273
9.735           -4.7025        20.261734      -12783.081281
9.845           -4.7025        18.375882      -12737.816924
9.955           -4.7025        16.59514       -12696.460415
10.065          -4.7025        15.11228       -12658.956086
10.175          -4.7025        13.704716      -12625.074506
10.285          -4.7025        12.28015       -12594.760169
10.395          -4.7025        10.805884      -12568.095766
10.505          -4.7025        9.253917       -12545.256939
10.615          -4.7025        7.601339       -12526.489143
10.725          -4.7025        5.61455        -12512.195444
10.835          -4.7025        3.447664       -12502.553999
10.945          -4.7025        1.31966        -12497.711178
0.055           -4.6075        0.151125       -16175.711137
0.165           -4.6075        0.464719       -16175.480256
0.275           -4.6075        0.734666       -16175.030231
0.385           -4.6075        1.041806       -16174.335366
0.495           -4.6075        1.355131       -16173.400654
0.605           -4.6075        1.67665        -16172.226137
0.715           -4.6075        2.005736       -16170.808479
0.825           -4.6075        2.343596       -16169.142643
0.935           -4.6075        2.691132       -16167.222441
1.045           -4.6075        3.049601       -16165.040719
1.155           -4.6075        3.400346       -16162.576164
1.265           -4.6075        3.762433       -16159.830955
1.375           -4.6075        4.137978       -16156.795333
1.485           -4.6075        4.528274       -16153.457851
1.595           -4.6075        4.934661       -16149.805952
1.705           -4.6075        5.360578       -16145.8247
1.815           -4.6075        5.832507       -16141.485174
1.925           -4.6075        6.328109       -16136.784695
2.035           -4.6075        6.849358       -16131.705555
2.145           -4.6075        7.398322       -16126.228666
2.255           -4.6075        7.977165       -16120.333502
2.365           -4.6075        8.588158       -16113.998029
2.475           -4.6075        9.217348       -16107.187643
2.585           -4.6075        9.86035        -16099.872149
2.695           -4.6075        10.538167      -16092.037157
2.805           -4.6075        11.253007      -16083.653525
2.915           -4.6075        12.007174      -16074.690207
3.025           -4.6075        12.803067      -16065.114162
3.135           -4.6075        13.675167      -16054.872353
3.245           -4.6075        14.623426      -16043.929221
3.355           -4.6075        15.62897       -16032.257082
3.465           -4.6075        16.695337      -16019.813612
3.575           -4.6075        17.8262        -16006.554022
3.685           -4.6075        19.025366      -15992.430974
3.795           -4.6075        20.296772      -15977.39449
3.905           -4.6075        21.572292      -15961.342902
4.015           -4.6075        22.915         -15944.260526
4.125           -4.6075        24.331907      -15926.091136
4.235           -4.6075        25.826483      -15906.772924
4.345           -4.6075        27.402225      -15886.241117
4.455           -4.6075        29.07087       -15864.423135
4.565           -4.6075        30.935783      -15841.19267
4.675           -4.6075        32.90596       -15816.528532
4.785           -4.6075        34.985557      -15790.353588
4.895           -4.6075        37.178535      -15762.587911
5.005           -4.6075        39.488595      -15733.148915
5.115           -4.6075        41.919077      -15701.951553
5.225           -4.6075        44.408517      -15668.865709
5.335           -4.6075        46.932412      -15633.784137
5.445           -4.6075        49.567854      -15596.667344
5.555           -4.6075        52.315374      -15557.423724
5.665           -4.6075        55.174732      -15515.961436
5.775           -4.6075        58.14479       -15472.189135
5.885           -4.6075        61.336587      -15425.95121
5.995           -4.6075        64.729021      -15377.169731
6.105           -4.6075        68.233811      -15325.808109
6.215           -4.6075        71.842134      -15271.78814
6.325           -4.6075        75.542552      -15215.038421
6.435           -4.6075        79.320662      -15155.496135
6.545           -4.6075        83.158734      -15093.109062
6.655           -4.6075        86.829215      -15027.708739
6.765           -4.6075        90.493002      -14959.391038
6.875           -4.6075        94.142576      -14888.164829
6.985           -4.6075        97.750161      -14814.050087
7.095           -4.6075        101.284385     -14737.091722
7.205           -4.6075        104.717348     -14657.358058
7.315           -4.6075        108.176015     -14574.841234
7.425           -4.6075        111.406399     -14489.815374
7.535           -4.6075        114.3495       -14402.465817
7.645           -4.6075        116.94215      -14313.020154
7.755           -4.6075        119.117994     -14221.750754
7.865           -4.6075        120.808887     -14128.976627
7.975           -4.6075        121.93443      -14035.070276
8.085           -4.6075        122.428394     -13940.455222
8.195           -4.6075        122.327702     -13845.632648
8.305           -4.6075        121.592091     -13751.107456
8.415           -4.6075        120.190872     -13657.416829
8.525           -4.6075        118.105623     -13565.120603
8.635           -4.6075        115.176263     -13474.86242
8.745           -4.6075        111.429388     -13387.208791
8.855           -4.6075        106.974009     -13302.680612
8.965           -4.6075        101.89214      -13221.767978
9.075           -4.6075        96.295173      -13144.893171
9.185           -4.6075        90.319938      -13072.391294
9.295           -4.6075        84.121078      -13004.494095
9.405           -4.6075        78.194202      -12941.524199
9.515           -4.6075        72.378773      -12883.277342
9.625           -4.6075        66.746211      -12829.617555
9.735           -4.6075        61.365196      -12780.346855
9.845           -4.6075        56.267372      -12735.219363
9.955           -4.6075        51.436226      -12693.98499
10.065          -4.6075        46.561339      -12656.582126
10.175          -4.6075        41.799038      -12622.688671
10.285          -4.6075        36.995898      -12592.273889
10.395          -4.6075        32.00794       -12565.426837
10.505          -4.6075        26.700996      -12542.343823
10.615          -4.6075        21.026137      -12523.31456
10.725          -4.6075        15.277081      -12508.853202
10.835          -4.6075        9.344389       -12499.136727
10.945          -4.6075        3.292698       -12494.357796
0.055           -4.5125        0.249304       -16176.409818
0.165           -4.5125        0.749106       -16176.181262
0.275           -4.5125        1.258433       -16175.724769
0.385           -4.5125        1.780494       -16175.040194
0.495           -4.5125        2.288538       -16174.112985
0.605           -4.5125        2.802394       -16172.946541
0.715           -4.5125        3.326715       -16171.539139
0.825           -4.5125        3.863088       -16169.885407
0.935           -4.5125        4.413143       -16167.979263
1.045           -4.5125        4.988614       -16165.808179
1.155           -4.5125        5.595531       -16163.362069
1.265           -4.5125        6.224694       -16160.638143
1.375           -4.5125        6.87857        -16157.626096
1.485           -4.5125        7.559709       -16154.314569
1.595           -4.5125        8.270767       -16150.691098
1.705           -4.5125        9.014516       -16146.742065
1.815           -4.5125        9.77981        -16142.442708
1.925           -4.5125        10.569796      -16137.776822
2.035           -4.5125        11.398528      -16132.73484
2.145           -4.5125        12.268918      -16127.297781
2.255           -4.5125        13.184007      -16121.445228
2.365           -4.5125        14.146972      -16115.155263
2.475           -4.5125        15.198405      -16108.384923
2.585           -4.5125        16.312665      -16101.124404
2.695           -4.5125        17.490823      -16093.348151
2.805           -4.5125        18.737254      -16085.027197
2.915           -4.5125        20.056537      -16076.130672
3.025           -4.5125        21.453462      -16066.62572
3.135           -4.5125        22.931264      -16056.476177
3.245           -4.5125        24.446763      -16045.609433
3.355           -4.5125        26.048902      -16034.01799
3.465           -4.5125        27.742675      -16021.659676
3.575           -4.5125        29.533252      -16008.489856
3.685           -4.5125        31.425978      -15994.461337
3.795           -4.5125        33.460012      -15979.506791
3.905           -4.5125        35.661298      -15963.563102
4.015           -4.5125        37.992637      -15946.597152
4.125           -4.5125        40.46084       -15928.550189
4.235           -4.5125        43.072831      -15909.360506
4.345           -4.5125        45.835614      -15888.963396
4.455           -4.5125        48.756217      -15867.291125
4.565           -4.5125        51.7866        -15844.233257
4.675           -4.5125        54.931629      -15819.714693
4.785           -4.5125        58.2418        -15793.690541
4.895           -4.5125        61.722708      -15766.080671
5.005           -4.5125        65.379601      -15736.802219
5.115           -4.5125        69.217281      -15705.769777
5.225           -4.5125        73.387663      -15672.816571
5.335           -4.5125        77.774028      -15637.916475
5.445           -4.5125        82.367632      -15600.983905
5.555           -4.5125        87.169858      -15561.926139
5.665           -4.5125        92.180458      -15520.649991
5.775           -4.5125        97.39724       -15477.062512
5.885           -4.5125        102.808832     -15431.067116
5.995           -4.5125        108.229658     -15382.45268
6.105           -4.5125        113.819616     -15331.250752
6.215           -4.5125        119.566119     -15277.380681
6.325           -4.5125        125.453163     -15220.768308
6.435           -4.5125        131.460926     -15161.347739
6.545           -4.5125        137.664627     -15099.004797
6.655           -4.5125        144.065704     -15033.675252
6.765           -4.5125        150.495938     -14965.407637
6.875           -4.5125        156.908222     -14894.194566
6.985           -4.5125        163.247947     -14820.050023
7.095           -4.5125        169.452561     -14743.012611
7.205           -4.5125        175.451259     -14663.148971
7.315           -4.5125        181.050847     -14580.49695
7.425           -4.5125        186.192449     -14495.215054
7.535           -4.5125        190.897199     -14407.542837
7.645           -4.5125        195.075494     -14317.703801
7.755           -4.5125        198.63351      -14225.967193
7.865           -4.5125        201.474802     -14132.65021
7.975           -4.5125        203.514058     -14038.062022
8.085           -4.5125        204.554836     -13942.715579
8.195           -4.5125        204.496336     -13847.087432
8.305           -4.5125        203.252662     -13751.693944
8.415           -4.5125        200.757987     -13657.088744
8.525           -4.5125        196.973535     -13563.853406
8.635           -4.5125        191.903755     -13472.593834
8.745           -4.5125        185.763965     -13384.076244
8.855           -4.5125        178.551789     -13298.748122
8.965           -4.5125        170.387431     -13217.129257
9.075           -4.5125        161.430023     -13139.669916
9.185           -4.5125        151.873046     -13066.728833
9.295           -4.5125        141.760703     -12998.65711
9.405           -4.5125        131.316758     -12935.60422
9.515           -4.5125        121.011141     -12877.425391
9.625           -4.5125        111.06576      -12823.968148
9.735           -4.5125        101.637063     -12774.981687
9.845           -4.5125        92.791426      -12730.15439
9.955           -4.5125        84.49268       -12689.160352
10.065          -4.5125        76.775733      -12651.815194
10.175          -4.5125        69.32848       -12617.891678
10.285          -4.5125        61.811974      -12587.289646
10.395          -4.5125        53.982955      -12560.114344
10.505          -4.5125        45.654149      -12536.601938
10.615          -4.5125        36.723251      -12517.03925
10.725          -4.5125        26.835603      -12502.055999
10.835          -4.5125        16.337433      -12491.845982
10.945          -4.5125        5.36927        -12486.865493
0.055           -4.4175        0.345558       -16177.432908
0.165           -4.4175        1.032875       -16177.18335
0.275           -4.4175        1.751814       -16176.750516
0.385           -4.4175        2.439786       -16176.079924
0.495           -4.4175        3.160935       -16175.162098
0.605           -4.4175        3.894353       -16174.011035
0.715           -4.4175        4.646457       -16172.621792
0.825           -4.4175        5.416906       -16170.988184
0.935           -4.4175        6.208666       -16169.104802
1.045           -4.4175        7.024693       -16166.964834
1.155           -4.4175        7.855255       -16164.551026
1.265           -4.4175        8.708719       -16161.857739
1.375           -4.4175        9.594518       -16158.879338
1.485           -4.4175        10.515876      -16155.604588
1.595           -4.4175        11.476163      -16152.021133
1.705           -4.4175        12.486217      -16148.111859
1.815           -4.4175        13.565205      -16143.854226
1.925           -4.4175        14.697416      -16139.242262
2.035           -4.4175        15.887189      -16134.258537
2.145           -4.4175        17.139063      -16128.884264
2.255           -4.4175        18.457787      -16123.099233
2.365           -4.4175        19.848338      -16116.881743
2.475           -4.4175        21.312495      -16110.205651
2.585           -4.4175        22.826991      -16103.024084
2.695           -4.4175        24.425362      -16095.331792
2.805           -4.4175        26.113099      -16087.100016
2.915           -4.4175        27.895938      -16078.298106
3.025           -4.4175        29.779866      -16068.893426
3.135           -4.4175        31.814556      -16058.83069
3.245           -4.4175        33.984326      -16048.083059
3.355           -4.4175        36.282911      -16036.617993
3.465           -4.4175        38.718115      -16024.393609
3.575           -4.4175        41.298045      -16011.365557
3.685           -4.4175        44.0311        -15997.486924
3.795           -4.4175        46.925965      -15982.708142
3.905           -4.4175        49.949597      -15966.943554
4.015           -4.4175        53.117862      -15950.144488
4.125           -4.4175        56.465663      -15932.272397
4.235           -4.4175        60.001712      -15913.265699
4.345           -4.4175        63.734813      -15893.059772
4.455           -4.4175        67.702886      -15871.57333
4.565           -4.4175        71.97966       -15848.702308
4.675           -4.4175        76.494227      -15824.412173
4.785           -4.4175        81.255921      -15798.625441
4.895           -4.4175        86.2737        -15771.261637
5.005           -4.4175        91.555988      -15742.237412
5.115           -4.4175        97.110496      -15711.466694
5.225           -4.4175        102.928834     -15678.848748
5.335           -4.4175        108.902006     -15644.209104
5.445           -4.4175        115.147932     -15607.540562
5.555           -4.4175        121.668432     -15568.74902
5.665           -4.4175        128.46339      -15527.739656
5.775           -4.4175        135.530412     -15484.417603
5.885           -4.4175        143.025397     -15438.604119
5.995           -4.4175        150.838189     -15390.257303
6.105           -4.4175        158.910218     -15339.311778
6.215           -4.4175        167.222891     -15285.682529
6.325           -4.4175        175.75205      -15229.290408
6.435           -4.4175        184.467242     -15170.063869
6.545           -4.4175        193.330931     -15107.940922
6.655           -4.4175        202.149961     -15042.776422
6.765           -4.4175        210.928167     -14974.578436
6.875           -4.4175        219.6862       -14903.385057
6.985           -4.4175        228.35563      -14829.202827
7.095           -4.4175        236.858538     -14752.062523
7.205           -4.4175        245.1795       -14671.972667
7.315           -4.4175        253.255933     -14588.985165
7.425           -4.4175        260.827751     -14503.324458
7.535           -4.4175        267.762918     -14415.161914
7.645           -4.4175        273.919467     -14324.71298
7.755           -4.4175        279.147334     -14232.240679
7.865           -4.4175        283.291054     -14138.058619
7.975           -4.4175        286.151562     -14042.519858
8.085           -4.4175        287.561106     -13946.097579
8.195           -4.4175        287.511521     -13849.291989
8.305           -4.4175        285.892184     -13752.633903
8.415           -4.4175        282.616367     -13656.697158
8.525           -4.4175        277.629048     -13562.089704
8.635           -4.4175        270.705874     -13469.487815
8.745           -4.4175        261.915477     -13379.579025
8.855           -4.4175        251.445177     -13292.956273
8.965           -4.4175        239.478327     -13210.195879
9.075           -4.4175        226.270459     -13131.802552
9.185           -4.4175        212.142913     -13058.181138
9.295           -4.4175        197.467914     -12989.610088
9.405           -4.4175        182.907854     -12926.378198
9.515           -4.4175        168.743557     -12868.359277
9.625           -4.4175        155.114046     -12815.255832
9.735           -4.4175        142.223735     -12766.746351
9.845           -4.4175        130.169795     -12722.429733
9.955           -4.4175        118.859369     -12681.932183
10.065          -4.4175        108.047028     -12644.911621
10.175          -4.4175        97.567077      -12610.983425
10.285          -4.4175        87.007063      -12580.067603
10.395          -4.4175        75.934546      -12552.284396
10.505          -4.4175        64.013879      -12527.951606
10.615          -4.4175        51.1662        -12507.702766
10.725          -4.4175        37.841233      -12492.079594
10.835          -4.4175        22.907328      -12481.340067
10.945          -4.4175        7.57829        -12475.852591
0.055           -4.3225        0.443611       -16178.796589
0.165           -4.3225        1.332632       -16178.583015
0.275           -4.3225        2.257076       -16178.107401
0.385           -4.3225        3.146784       -16177.469261
0.495           -4.3225        4.034054       -16176.539536
0.605           -4.3225        4.987844       -16175.438699
0.715           -4.3225        5.936469       -16174.07145
0.825           -4.3225        6.901827       -16172.462181
0.935           -4.3225        7.891466       -16170.606891
1.045           -4.3225        8.924568       -16168.49157
1.155           -4.3225        9.999628       -16166.111132
1.265           -4.3225        11.113815      -16163.460125
1.375           -4.3225        12.271565      -16160.528506
1.485           -4.3225        13.477187      -16157.305293
1.595           -4.3225        14.735284      -16153.778309
1.705           -4.3225        16.05068       -16149.934242
1.815           -4.3225        17.424511      -16145.755052
1.925           -4.3225        18.84483       -16141.211829
2.035           -4.3225        20.335572      -16136.301949
2.145           -4.3225        21.902107      -16131.006836
2.255           -4.3225        23.550052      -16125.306501
2.365           -4.3225        25.287993      -16119.178886
2.475           -4.3225        27.158591      -16112.583251
2.585           -4.3225        29.134364      -16105.511007
2.695           -4.3225        31.222604      -16097.935541
2.805           -4.3225        33.430948      -16089.828443
2.915           -4.3225        35.76739       -16081.15942
3.025           -4.3225        38.240293      -16071.896207
3.135           -4.3225        40.858399      -16062.004478
3.245           -4.3225        43.601034      -16051.421229
3.355           -4.3225        46.485277      -16040.116834
3.465           -4.3225        49.536595      -16028.062045
3.575           -4.3225        52.764595      -16015.212823
3.685           -4.3225        56.17922       -16001.522558
3.795           -4.3225        59.837971      -15986.922309
3.905           -4.3225        63.748807      -15971.358124
4.015           -4.3225        67.889457      -15954.791321
4.125           -4.3225        72.271955      -15937.163571
4.235           -4.3225        76.90856       -15918.413514
4.345           -4.3225        81.811696      -15898.476686
4.455           -4.3225        86.993872      -15877.285477
4.565           -4.3225        92.453797      -15854.755298
4.675           -4.3225        98.129932      -15830.756596
4.785           -4.3225        104.109297     -15805.271973
4.895           -4.3225        110.402617     -15778.22059
5.005           -4.3225        117.020024     -15749.518583
5.115           -4.3225        123.984865     -15719.074734
5.225           -4.3225        131.445311     -15686.728799
5.335           -4.3225        139.271457     -15652.454646
5.445           -4.3225        147.468885     -15616.157714
5.555           -4.3225        156.040941     -15577.741759
5.665           -4.3225        164.988268     -15537.109362
5.775           -4.3225        174.308285     -15494.162545
5.885           -4.3225        183.994608     -15448.803505
5.995           -4.3225        193.905844     -15400.837378
6.105           -4.3225        204.083844     -15350.220069
6.215           -4.3225        214.561417     -15296.900655
6.325           -4.3225        225.310484     -15240.794552
6.435           -4.3225        236.295828     -15181.824121
6.545           -4.3225        247.633594     -15119.830962
6.655           -4.3225        259.195512     -15054.792742
6.765           -4.3225        270.83133      -14986.712271
6.875           -4.3225        282.460252     -14915.563883
6.985           -4.3225        293.988247     -14841.341944
7.095           -4.3225        305.307151     -14764.064293
7.205           -4.3225        316.293936     -14683.775979
7.315           -4.3225        326.724539     -14600.509231
7.425           -4.3225        336.368884     -14514.35585
7.535           -4.3225        345.237497     -14425.565317
7.645           -4.3225        353.160371     -14334.343757
7.755           -4.3225        359.957856     -14240.946606
7.865           -4.3225        365.512455     -14145.623583
7.975           -4.3225        369.489671     -14048.760812
8.085           -4.3225        371.671303     -13950.859536
8.195           -4.3225        371.865029     -13852.413594
8.305           -4.3225        369.899456     -13753.974894
8.415           -4.3225        365.635683     -13656.148943
8.525           -4.3225        358.980439     -13559.587002
8.635           -4.3225        349.900306     -13464.974194
8.745           -4.3225        338.486087     -13373.144349
8.855           -4.3225        325.057389     -13284.815121
8.965           -4.3225        309.736204     -13200.53949
9.075           -4.3225        292.831204     -13120.888214
9.185           -4.3225        274.730685     -13046.325044
9.295           -4.3225        255.574494     -12977.352073
9.405           -4.3225        236.080249     -12914.046993
9.515           -4.3225        216.947408     -12856.254851
9.625           -4.3225        198.657597     -12803.704258
9.735           -4.3225        181.564997     -12755.954933
9.845           -4.3225        165.83854      -12712.449067
9.955           -4.3225        151.421043     -12672.587061
10.065          -4.3225        138.149794     -12635.892021
10.175          -4.3225        125.424332     -12601.957079
10.285          -4.3225        112.57855      -12570.620068
10.395          -4.3225        99.076164      -12542.033523