% Model:              PurmonSmall_traj-grid.mph
% Version:            COMSOL 4.3.0.151
% Date:               Mar 5 2014, 16:09
% Dimension:          2
% Nodes:              10000
% Expressions:        2
% Description:        , 
% Length unit:        mm
% r             z              es.Er (V/m) @ TopV=7 es.Ez (V/m) @ TopV=7
0.055           -4.7025        -0.190025      -47138.230577
0.165           -4.7025        -0.466892      -47138.869172
0.275           -4.7025        -0.772228      -47140.160619
0.385           -4.7025        -1.049465      -47142.116379
0.495           -4.7025        -1.317596      -47144.740146
0.605           -4.7025        -1.58723       -47148.03535
0.715           -4.7025        -1.860973      -47152.013632
0.825           -4.7025        -2.140596      -47156.689695
0.935           -4.7025        -2.426742      -47162.081677
1.045           -4.7025        -2.73318       -47168.218529
1.155           -4.7025        -3.097477      -47175.146227
1.265           -4.7025        -3.476625      -47182.865264
1.375           -4.7025        -3.872473      -47191.4063
1.485           -4.7025        -4.286959      -47200.803259
1.595           -4.7025        -4.722126      -47211.093475
1.705           -4.7025        -5.180132      -47222.31786
1.815           -4.7025        -5.59689       -47234.563161
1.925           -4.7025        -6.020399      -47247.849317
2.035           -4.7025        -6.463846      -47262.222278
2.145           -4.7025        -6.928614      -47277.74008
2.255           -4.7025        -7.416148      -47294.465479
2.365           -4.7025        -7.927957      -47312.466232
2.475           -4.7025        -8.54661       -47331.86376
2.585           -4.7025        -9.237486      -47352.71481
2.695           -4.7025        -9.974315      -47375.087523
2.805           -4.7025        -10.760973     -47399.074177
2.915           -4.7025        -11.601628     -47424.773949
3.025           -4.7025        -12.500762     -47452.29338
3.135           -4.7025        -13.40861      -47481.781546
3.245           -4.7025        -14.267327     -47513.402069
3.355           -4.7025        -15.175647     -47547.226895
3.465           -4.7025        -16.136637     -47583.399242
3.575           -4.7025        -17.153527     -47622.072765
3.685           -4.7025        -18.229723     -47663.412292
3.795           -4.7025        -19.422301     -47707.626695
3.905           -4.7025        -20.889563     -47754.996538
4.015           -4.7025        -22.46656      -47805.625269
4.125           -4.7025        -24.162254     -47859.733784
4.235           -4.7025        -25.986347     -47917.559073
4.345           -4.7025        -27.949349     -47979.355396
4.455           -4.7025        -30.062645     -48045.395541
4.565           -4.7025        -32.021553     -48116.174826
4.675           -4.7025        -34.048605     -48191.87438
4.785           -4.7025        -36.201919     -48272.802575
4.895           -4.7025        -38.489334     -48359.325924
5.005           -4.7025        -40.919123     -48451.837845
5.115           -4.7025        -43.500014     -48550.760611
5.225           -4.7025        -46.666477     -48656.800271
5.335           -4.7025        -50.24115      -48770.330646
5.445           -4.7025        -54.09869      -48891.794095
5.555           -4.7025        -58.262235     -49021.757777
5.665           -4.7025        -62.756687     -49160.830106
5.775           -4.7025        -67.608784     -49309.663477
5.885           -4.7025        -72.540864     -49469.152093
5.995           -4.7025        -77.248456     -49640.262277
6.105           -4.7025        -82.256697     -49823.477869
6.215           -4.7025        -87.582917     -50019.666199
6.325           -4.7025        -93.245007     -50229.7533
6.435           -4.7025        -99.261373     -50454.7263
6.545           -4.7025        -105.963029    -50695.822525
6.655           -4.7025        -114.21936     -50954.657996
6.765           -4.7025        -123.107584    -51231.856285
6.875           -4.7025        -132.665075    -51528.673716
6.985           -4.7025        -142.927341    -51846.429203
7.095           -4.7025        -153.926435    -52186.50026
7.205           -4.7025        -165.688899    -52550.316662
7.315           -4.7025        -176.49145     -52940.457976
7.425           -4.7025        -187.543257    -53357.661557
7.535           -4.7025        -199.123001    -53803.255422
7.645           -4.7025        -211.218856    -54278.731887
7.755           -4.7025        -223.810641    -54785.53289
7.865           -4.7025        -236.868655    -55325.010357
7.975           -4.7025        -252.266262    -55899.539624
8.085           -4.7025        -268.905914    -56509.516631
8.195           -4.7025        -285.840193    -57155.166345
8.305           -4.7025        -302.830066    -57836.803064
8.415           -4.7025        -319.569771    -58554.271527
8.525           -4.7025        -335.680301    -59306.840223
8.635           -4.7025        -350.144012    -60093.414827
8.745           -4.7025        -361.506414    -60912.274497
8.855           -4.7025        -371.414729    -61758.901295
8.965           -4.7025        -379.542091    -62628.916032
9.075           -4.7025        -385.554081    -63516.831698
9.185           -4.7025        -389.116216    -64416.030611
9.295           -4.7025        -389.202982    -65318.408051
9.405           -4.7025        -385.220998    -66215.246211
9.515           -4.7025        -376.157863    -67096.389563
9.625           -4.7025        -361.821815    -67951.777508
9.735           -4.7025        -342.283878    -68771.280476
9.845           -4.7025        -317.902067    -69545.129833
9.955           -4.7025        -289.312331    -70264.369231
10.065          -4.7025        -262.008017    -70918.311087
10.175          -4.7025        -233.632423    -71503.081781
10.285          -4.7025        -204.306448    -72014.925346
10.395          -4.7025        -174.433421    -72451.617297
10.505          -4.7025        -144.394682    -72812.539604
10.615          -4.7025        -114.505648    -73098.309469
10.725          -4.7025        -82.076484     -73308.669936
10.835          -4.7025        -49.111864     -73446.54313
10.945          -4.7025        -18.553637     -73514.660431
0.055           -4.6075        -0.421963      -47137.303883
0.165           -4.6075        -1.29762       -47137.948493
0.275           -4.6075        -2.051592      -47139.20499
0.385           -4.6075        -2.909738      -47141.145372
0.495           -4.6075        -3.785634      -47143.755967
0.605           -4.6075        -4.685057      -47147.03708
0.715           -4.6075        -5.606435      -47150.998551
0.825           -4.6075        -6.553331      -47155.655095
0.935           -4.6075        -7.528486      -47161.024775
1.045           -4.6075        -8.535651      -47167.128513
1.155           -4.6075        -9.522555      -47174.027322
1.265           -4.6075        -10.543011     -47181.71621
1.375           -4.6075        -11.603176     -47190.224024
1.485           -4.6075        -12.706995     -47199.584562
1.595           -4.6075        -13.858586     -47209.835024
1.705           -4.6075        -15.068161     -47221.019686
1.815           -4.6075        -16.411676     -47233.222805
1.925           -4.6075        -17.826344     -47246.454768
2.035           -4.6075        -19.318487     -47260.768905
2.145           -4.6075        -20.894806     -47276.222983
2.255           -4.6075        -22.562421     -47292.879468
2.365           -4.6075        -24.328905     -47310.805805
2.475           -4.6075        -26.154725     -47330.10692
2.585           -4.6075        -28.028421     -47350.875758
2.695           -4.6075        -30.011669     -47373.160407
2.805           -4.6075        -32.112382     -47397.052793
2.915           -4.6075        -34.338969     -47422.651716
3.025           -4.6075        -36.700369     -47450.063305
3.135           -4.6075        -39.302602     -47479.45512
3.245           -4.6075        -42.149146     -47510.944803
3.355           -4.6075        -45.187503     -47544.629115
3.465           -4.6075        -48.432376     -47580.65059
3.575           -4.6075        -51.899563     -47619.162138
3.685           -4.6075        -55.606049     -47660.327784
3.795           -4.6075        -59.5701       -47704.323453
3.905           -4.6075        -63.583628     -47751.494541
4.015           -4.6075        -67.850306     -47801.918956
4.125           -4.6075        -72.398245     -47855.809156
4.235           -4.6075        -77.247152     -47913.401173
4.345           -4.6075        -82.418096     -47974.948239
4.455           -4.6075        -87.96334      -48040.739337
4.565           -4.6075        -94.247843     -48111.250582
4.675           -4.6075        -100.988768    -48186.626644
4.785           -4.6075        -108.221294    -48267.207273
4.895           -4.6075        -115.983343    -48353.357166
5.005           -4.6075        -124.315766    -48445.467787
5.115           -4.6075        -133.262563    -48543.959324
5.225           -4.6075        -142.622918    -48649.453011
5.335           -4.6075        -152.344508    -48762.508682
5.445           -4.6075        -162.740054    -48883.464532
5.555           -4.6075        -173.856833    -49012.885581
5.665           -4.6075        -185.745123    -49151.378026
5.775           -4.6075        -198.458299    -49299.591973
5.885           -4.6075        -212.59029     -49458.520656
5.995           -4.6075        -228.160063    -49628.883667
6.105           -4.6075        -244.894548    -49811.298882
6.215           -4.6075        -262.877686    -50006.630864
6.325           -4.6075        -282.197422    -50215.803085
6.435           -4.6075        -302.945206    -50439.800456
6.545           -4.6075        -325.215241    -50679.671517
6.655           -4.6075        -347.810243    -50937.418766
6.765           -4.6075        -371.868871    -51213.507839
6.875           -4.6075        -397.510853    -51509.161158
6.985           -4.6075        -424.808006    -51825.700259
7.095           -4.6075        -453.826387    -52164.506949
7.205           -4.6075        -484.800999    -52527.120461
7.315           -4.6075        -519.609887    -52916.039521
7.425           -4.6075        -556.53378     -53331.818665
7.535           -4.6075        -595.570567    -53775.990077
7.645           -4.6075        -636.675593    -54250.07381
7.755           -4.6075        -679.749595    -54755.547216
7.865           -4.6075        -724.624643    -55293.806529
7.975           -4.6075        -769.884781    -55866.870678
8.085           -4.6075        -814.731441    -56476.069633
8.195           -4.6075        -860.19397     -57121.218078
8.305           -4.6075        -905.771578    -57802.70332
8.415           -4.6075        -950.848887    -58520.450723
8.525           -4.6075        -994.686833    -59273.8154
8.635           -4.6075        -1037.622529   -60062.312084
8.745           -4.6075        -1077.941493   -60883.468372
8.855           -4.6075        -1113.036967   -61733.279203
8.965           -4.6075        -1141.322777   -62607.436071
9.075           -4.6075        -1161.132654   -63500.484589
9.185           -4.6075        -1170.802126   -64405.786264
9.295           -4.6075        -1168.776844   -65315.538076
9.405           -4.6075        -1154.774003   -66219.551333
9.515           -4.6075        -1128.075303   -67108.508664
9.625           -4.6075        -1088.877049   -67971.830724
9.735           -4.6075        -1037.353349   -68799.075535
9.845           -4.6075        -974.169067    -69580.144201
9.955           -4.6075        -899.729744    -70305.326566
10.065          -4.6075        -811.448889    -70964.343723
10.175          -4.6075        -715.875981    -71553.04447
10.285          -4.6075        -615.688578    -72067.42437
10.395          -4.6075        -513.677118    -72505.386586
10.505          -4.6075        -411.847868    -72866.557152
10.615          -4.6075        -312.168926    -73151.756585
10.725          -4.6075        -219.842247    -73360.375736
10.835          -4.6075        -131.612265    -73496.099098
10.945          -4.6075        -45.812268     -73561.737677
0.055           -4.5125        -0.696022      -47135.35317
0.165           -4.5125        -2.091517      -47135.991076
0.275           -4.5125        -3.513849      -47137.265242
0.385           -4.5125        -4.97241       -47139.176241
0.495           -4.5125        -6.392575      -47141.76505
0.605           -4.5125        -7.829958      -47145.022577
0.715           -4.5125        -9.297795      -47148.954135
0.825           -4.5125        -10.800808     -47153.575342
0.935           -4.5125        -12.34384      -47158.903945
1.045           -4.5125        -13.960175     -47164.975876
1.155           -4.5125        -15.667339     -47171.820484
1.265           -4.5125        -17.439901     -47179.446797
1.375           -4.5125        -19.285321     -47187.885108
1.485           -4.5125        -21.211363     -47197.168898
1.595           -4.5125        -23.226187     -47207.335021
1.705           -4.5125        -25.338384     -47218.423871
1.815           -4.5125        -27.517153     -47230.507996
1.925           -4.5125        -29.772136     -47243.636085
2.035           -4.5125        -32.144142     -47257.838142
2.145           -4.5125        -34.642614     -47273.171503
2.255           -4.5125        -37.277539     -47289.698168
2.365           -4.5125        -40.05949      -47307.485075
2.475           -4.5125        -43.108279     -47326.660504
2.585           -4.5125        -46.352236     -47347.258605
2.695           -4.5125        -49.796851     -47369.359414
2.805           -4.5125        -53.45772      -47393.053995
2.915           -4.5125        -57.35151      -47418.440216
3.025           -4.5125        -61.496044     -47445.623198
3.135           -4.5125        -65.905018     -47474.719576
3.245           -4.5125        -70.454945     -47505.958014
3.355           -4.5125        -75.295046     -47539.373825
3.465           -4.5125        -80.4461       -47575.108414
3.575           -4.5125        -85.930308     -47613.313488
3.685           -4.5125        -91.771402     -47654.151777
3.795           -4.5125        -98.100372     -47697.851346
3.905           -4.5125        -105.01336     -47744.634129
4.015           -4.5125        -112.406637    -47794.633553
4.125           -4.5125        -120.316381    -47848.067447
4.235           -4.5125        -128.781514    -47905.169499
4.345           -4.5125        -137.843923    -47966.190412
4.455           -4.5125        -147.548693    -48031.399148
4.565           -4.5125        -157.761597    -48101.221108
4.675           -4.5125        -168.521829    -48175.976747
4.785           -4.5125        -180.023953    -48255.893996
4.895           -4.5125        -192.321431    -48341.334575
5.005           -4.5125        -205.471534    -48432.686782
5.115           -4.5125        -219.53558     -48530.36744
5.225           -4.5125        -235.149075    -48635.1109
5.335           -4.5125        -251.955925    -48747.182767
5.445           -4.5125        -269.997524    -48867.081494
5.555           -4.5125        -289.36717     -48995.366877
5.665           -4.5125        -310.164723    -49132.639646
5.775           -4.5125        -332.496863    -49279.544248
5.885           -4.5125        -356.442738    -49436.79679
5.995           -4.5125        -381.349988    -49605.721434
6.105           -4.5125        -408.019729    -49786.602935
6.215           -4.5125        -436.570744    -49980.301325
6.325           -4.5125        -467.127026    -50187.73586
6.435           -4.5125        -499.817202    -50409.887715
6.545           -4.5125        -535.384615    -50648.112136
6.655           -4.5125        -574.331916    -50903.710286
6.765           -4.5125        -616.051727    -51177.487427
6.875           -4.5125        -660.697235    -51470.703414
6.985           -4.5125        -708.415385    -51784.68546
7.095           -4.5125        -759.341736    -52120.825489
7.205           -4.5125        -813.593899    -52480.575403
7.315           -4.5125        -870.218223    -52866.19717
7.425           -4.5125        -929.239159    -53279.240713
7.535           -4.5125        -991.461091    -53720.681381
7.645           -4.5125        -1056.822942   -54192.085159
7.755           -4.5125        -1125.193198   -54694.986717
7.865           -4.5125        -1196.353473   -55230.852609
7.975           -4.5125        -1272.673154   -55802.564236
8.085           -4.5125        -1351.252279   -56409.997776
8.195           -4.5125        -1431.194255   -57053.968
8.305           -4.5125        -1511.543862   -57735.037683
8.415           -4.5125        -1591.094081   -58453.329443
8.525           -4.5125        -1668.359986   -59208.412823
8.635           -4.5125        -1741.495765   -59999.205268
8.745           -4.5125        -1805.834033   -60824.960851
8.855           -4.5125        -1862.137126   -61681.00159
8.965           -4.5125        -1908.129662   -62563.137851
9.075           -4.5125        -1941.429961   -63465.975785
9.185           -4.5125        -1959.647494   -64382.857953
9.295           -4.5125        -1959.947657   -65306.015723
9.405           -4.5125        -1938.730591   -66225.64947
9.515           -4.5125        -1894.588141   -67131.020496
9.625           -4.5125        -1826.705397   -68011.145615
9.735           -4.5125        -1735.309614   -68854.812068
9.845           -4.5125        -1621.785148   -69651.095159
9.955           -4.5125        -1488.688691   -70389.930779
10.065          -4.5125        -1342.788035   -71060.310876
10.175          -4.5125        -1188.306804   -71656.205769
10.285          -4.5125        -1027.613837   -72174.885477
10.395          -4.5125        -863.934206    -72614.418842
10.505          -4.5125        -700.549752    -72974.906708
10.615          -4.5125        -540.885293    -73259.161758
10.725          -4.5125        -381.122759    -73465.699239
10.835          -4.5125        -226.344855    -73601.245503
10.945          -4.5125        -73.320949     -73665.098735
0.055           -4.4175        -0.964614      -47132.497065
0.165           -4.4175        -2.883373      -47133.19322
0.275           -4.4175        -4.890761      -47134.400865
0.385           -4.4175        -6.812547      -47136.271964
0.495           -4.4175        -8.827953      -47138.833389
0.605           -4.4175        -10.879074     -47142.046392
0.715           -4.4175        -12.984167     -47145.925265
0.825           -4.4175        -15.142701     -47150.487864
0.935           -4.4175        -17.363418     -47155.750006
1.045           -4.4175        -19.655099     -47161.731565
1.155           -4.4175        -21.991107     -47168.48194
1.265           -4.4175        -24.395245     -47176.018207
1.375           -4.4175        -26.894676     -47184.357378
1.485           -4.4175        -29.499205     -47193.532504
1.595           -4.4175        -32.219163     -47203.580029
1.705           -4.4175        -35.08605      -47214.549952
1.815           -4.4175        -38.1562       -47226.508425
1.925           -4.4175        -41.386072     -47239.474841
2.035           -4.4175        -44.789527     -47253.501404
2.145           -4.4175        -48.381234     -47268.644658
2.255           -4.4175        -52.176751     -47284.965739
2.365           -4.4175        -56.1926       -47302.530651
2.475           -4.4175        -60.43686      -47321.418782
2.585           -4.4175        -64.844672     -47341.771668
2.695           -4.4175        -69.515689     -47363.609816
2.805           -4.4175        -74.46947      -47387.023239
2.915           -4.4175        -79.726847     -47412.108675
3.025           -4.4175        -85.310024     -47438.970033
3.135           -4.4175        -91.372269     -47467.778546
3.245           -4.4175        -97.876387     -47498.626737
3.355           -4.4175        -104.810344    -47531.62346
3.465           -4.4175        -112.206335    -47566.908075
3.575           -4.4175        -120.098891    -47604.630075
3.685           -4.4175        -128.525063    -47644.949797
3.795           -4.4175        -137.524626    -47688.039188
3.905           -4.4175        -147.013449    -47734.187891
4.015           -4.4175        -157.051334    -47783.578104
4.125           -4.4175        -167.765395    -47836.361066
4.235           -4.4175        -179.20438     -47892.767603
4.345           -4.4175        -191.420548    -47953.045355
4.455           -4.4175        -204.563243    -48017.499944
4.565           -4.4175        -218.930318    -48086.533047
4.675           -4.4175        -234.320687    -48160.324074
4.785           -4.4175        -250.811496    -48239.204918
4.895           -4.4175        -268.485756    -48323.531859
5.005           -4.4175        -287.432758    -48413.687362
5.115           -4.4175        -307.748522    -48510.082011
5.225           -4.4175        -329.491519    -48613.199087
5.335           -4.4175        -352.339018    -48723.855247
5.445           -4.4175        -376.805891    -48842.239999
5.555           -4.4175        -403.009328    -48968.906698
5.665           -4.4175        -431.074348    -49104.449376
5.775           -4.4175        -461.134077    -49249.505543
5.885           -4.4175        -494.049067    -49405.083278
5.995           -4.4175        -529.631005    -49571.776702
6.105           -4.4175        -567.828252    -49750.267182
6.215           -4.4175        -608.826769    -49941.406152
6.325           -4.4175        -652.821673    -50146.104807
6.435           -4.4175        -700.016379    -50365.337171
6.545           -4.4175        -750.621259    -50600.142981
6.655           -4.4175        -804.123498    -50852.232615
6.765           -4.4175        -860.827313    -51122.680515
6.875           -4.4175        -921.37646     -51412.397861
6.985           -4.4175        -985.958191    -51722.718424
7.095           -4.4175        -1054.746818   -52055.045459
7.205           -4.4175        -1128.465659   -52411.109535
7.315           -4.4175        -1208.450463   -52793.065866
7.425           -4.4175        -1293.290625   -53201.777346
7.535           -4.4175        -1383.00782    -53638.872707
7.645           -4.4175        -1477.537394   -54105.997522
7.755           -4.4175        -1576.703539   -54604.788901
7.865           -4.4175        -1680.190068   -55136.842574
7.975           -4.4175        -1787.148466   -55703.925887
8.085           -4.4175        -1894.748339   -56308.79889
8.195           -4.4175        -2004.245817   -56951.005521
8.305           -4.4175        -2114.446209   -57631.329862
8.415           -4.4175        -2223.852573   -58350.141826
8.525           -4.4175        -2330.635918   -59107.280373
8.635           -4.4175        -2434.822022   -59903.610323
8.745           -4.4175        -2531.174529   -60735.949364
8.855           -4.4175        -2616.086661   -61601.298124
8.965           -4.4175        -2685.903833   -62495.721129
9.075           -4.4175        -2736.722806   -63413.969079
9.185           -4.4175        -2764.559538   -64349.367966
9.295           -4.4175        -2765.582385   -65293.766812
9.405           -4.4175        -2735.601134   -66236.86265
9.515           -4.4175        -2674.700686   -67166.594834
9.625           -4.4175        -2581.91507    -68071.60634
9.735           -4.4175        -2457.485087   -68939.664041
9.845           -4.4175        -2303.066309   -69758.737169
9.955           -4.4175        -2119.71807    -70516.836978
10.065          -4.4175        -1908.980096   -71202.535379
10.175          -4.4175        -1681.578562   -71810.359464
10.285          -4.4175        -1444.464718   -72336.268792
10.395          -4.4175        -1204.011552   -72778.826968
10.505          -4.4175        -966.228954    -73138.737164
10.615          -4.4175        -736.331792    -73417.404678
10.725          -4.4175        -523.656582    -73617.005905
10.835          -4.4175        -308.018972    -73749.674729
10.945          -4.4175        -100.781176    -73813.41206
0.055           -4.3225        -1.238071      -47128.690775
0.165           -4.3225        -3.719387      -47129.28619
0.275           -4.3225        -6.300084      -47130.612378
0.385           -4.3225        -8.784712      -47132.3918
0.495           -4.3225        -11.264268     -47134.984595
0.605           -4.3225        -13.930912     -47138.055513
0.715           -4.3225        -16.585446     -47141.870511
0.825           -4.3225        -19.289367     -47146.362188
0.935           -4.3225        -22.064276     -47151.542378
1.045           -4.3225        -24.964444     -47157.450843
1.155           -4.3225        -27.98681      -47164.103026
1.265           -4.3225        -31.124003     -47171.515168
1.375           -4.3225        -34.389368     -47179.716625
1.485           -4.3225        -37.79602      -47188.739599
1.595           -4.3225        -41.358059     -47198.619874
1.705           -4.3225        -45.090373     -47209.396684
1.815           -4.3225        -48.998131     -47221.122798
1.925           -4.3225        -53.048368     -47233.883221
2.035           -4.3225        -57.310772     -47247.687527
2.145           -4.3225        -61.802683     -47262.591402
2.255           -4.3225        -66.542458     -47278.655057
2.365           -4.3225        -71.55655      -47295.94449
2.475           -4.3225        -76.973778     -47314.581621
2.585           -4.3225        -82.717587     -47334.595914
2.695           -4.3225        -88.813321     -47356.069494
2.805           -4.3225        -95.288016     -47379.090671
2.915           -4.3225        -102.170534    -47403.754334
3.025           -4.3225        -109.491712    -47430.162394
3.135           -4.3225        -117.28452     -47458.424254
3.245           -4.3225        -125.499464    -47488.736452
3.355           -4.3225        -134.190866    -47521.200939
3.465           -4.3225        -143.446071    -47555.916903
3.575           -4.3225        -153.305833    -47593.031448
3.685           -4.3225        -163.813768    -47632.702349
3.795           -4.3225        -175.160611    -47675.154162
3.905           -4.3225        -187.401273    -47720.582127
4.015           -4.3225        -200.484089    -47769.129935
4.125           -4.3225        -214.471763    -47821.008448
4.235           -4.3225        -229.431697    -47876.443851
4.345           -4.3225        -245.436363    -47935.678768
4.455           -4.3225        -262.563699    -47998.973471
4.565           -4.3225        -280.86517     -48066.64916
4.675           -4.3225        -300.171326    -48139.210805
4.785           -4.3225        -320.821565    -48216.777133
4.895           -4.3225        -342.914057    -48299.698506
5.005           -4.3225        -366.554118    -48388.351075
5.115           -4.3225        -391.883981    -48483.136008
5.225           -4.3225        -419.611506    -48584.764135
5.335           -4.3225        -449.352868    -48693.469747
5.445           -4.3225        -481.259535    -48809.758245
5.555           -4.3225        -515.493904    -48934.17247
5.665           -4.3225        -552.229853    -49067.295425
5.775           -4.3225        -591.653243    -49209.753145
5.885           -4.3225        -633.962338    -49362.21772
5.995           -4.3225        -678.916174    -49525.84752
6.105           -4.3225        -726.805081    -49701.290256
6.215           -4.3225        -778.117542    -49889.18083
6.325           -4.3225        -833.085448    -50090.42136
6.435           -4.3225        -891.950389    -50305.977587
6.545           -4.3225        -955.800198    -50537.205763
6.655           -4.3225        -1024.896055   -50785.284564
6.765           -4.3225        -1098.907245   -51051.107591
6.875           -4.3225        -1178.114782   -51335.939513
6.985           -4.3225        -1262.792757   -51641.122455
7.095           -4.3225        -1353.200423   -51968.07626
7.205           -4.3225        -1449.572036   -52318.297254
7.315           -4.3225        -1551.840752   -52693.626081
7.425           -4.3225        -1658.732565   -53096.74767
7.535           -4.3225        -1771.682      -53528.226917
7.645           -4.3225        -1890.629453   -53989.794955
7.755           -4.3225        -2015.391026   -54483.19692
7.865           -4.3225        -2146.029299   -55010.346068
7.975           -4.3225        -2284.348999   -55574.207871
8.085           -4.3225        -2426.972042   -56175.104167
8.195           -4.3225        -2572.713611   -56814.434287
8.305           -4.3225        -2720.002735   -57493.336939
8.415           -4.3225        -2866.82097    -58212.588198
8.525           -4.3225        -3010.643836   -58972.478383
8.635           -4.3225        -3148.391104   -59772.66658
8.745           -4.3225        -3273.248031   -60613.36587
8.855           -4.3225        -3383.675355   -61490.6737
8.965           -4.3225        -3475.745943   -62400.75151
9.075           -4.3225        -3544.703104   -63338.554855
9.185           -4.3225        -3585.662936   -64297.45641
9.295           -4.3225        -3594.08631    -65270.775351
9.405           -4.3225        -3561.464578   -66245.466272
9.515           -4.3225        -3485.600288   -67209.874455
9.625           -4.3225        -3364.377271   -68150.749457
9.735           -4.3225        -3197.71224    -69054.127344
9.845           -4.3225        -2987.925746   -69906.048344
9.955           -4.3225        -2739.889664   -70693.448867
10.065          -4.3225        -2462.752165   -71403.280222
10.175          -4.3225        -2168.602562   -72025.943102
10.285          -4.3225        -1863.542415   -72559.87768
10.395          -4.3225        -1555.708368   -73004.117082