% Model:              PurmonSmall_traj-grid.mph
% Version:            COMSOL 4.3.0.151
% Date:               Mar 5 2014, 16:08
% Dimension:          2
% Nodes:              10000
% Expressions:        2
% Description:        , 
% Length unit:        mm
% r             z              es.Er (V/m) @ TopV=4 es.Ez (V/m) @ TopV=4
0.055           -4.7025        -0.055563      -31006.155408
0.165           -4.7025        -0.136523      -31006.342131
0.275           -4.7025        -0.225823      -31006.719761
0.385           -4.7025        -0.306925      -31007.291694
0.495           -4.7025        -0.385393      -31008.059064
0.605           -4.7025        -0.464335      -31009.022953
0.715           -4.7025        -0.544518      -31010.186865
0.825           -4.7025        -0.626469      -31011.555223
0.935           -4.7025        -0.710382      -31013.133479
1.045           -4.7025        -0.800323      -31014.930296
1.155           -4.7025        -0.907336      -31016.959354
1.265           -4.7025        -1.018833      -31019.221035
1.375           -4.7025        -1.135378      -31021.724604
1.485           -4.7025        -1.25757       -31024.480328
1.595           -4.7025        -1.386041      -31027.499528
1.705           -4.7025        -1.521463      -31030.794634
1.815           -4.7025        -1.644862      -31034.391742
1.925           -4.7025        -1.77048       -31038.297207
2.035           -4.7025        -1.902214      -31042.525193
2.145           -4.7025        -2.040506      -31047.093521
2.255           -4.7025        -2.185819      -31052.021518
2.365           -4.7025        -2.33864       -31057.330122
2.475           -4.7025        -2.523837      -31063.056516
2.585           -4.7025        -2.731122      -31069.218641
2.695           -4.7025        -2.952799      -31075.838084
2.805           -4.7025        -3.190158      -31082.943825
2.915           -4.7025        -3.444603      -31090.567156
3.025           -4.7025        -3.717654      -31098.741854
3.135           -4.7025        -3.99419       -31107.51505
3.245           -4.7025        -4.256812      -31116.938567
3.355           -4.7025        -4.535514      -31127.03683
3.465           -4.7025        -4.831387      -31137.856337
3.575           -4.7025        -5.145589      -31149.447302
3.685           -4.7025        -5.47935       -31161.863965
3.795           -4.7025        -5.850994      -31175.175111
3.905           -4.7025        -6.310318      -31189.472451
4.015           -4.7025        -6.806727      -31204.793725
4.125           -4.7025        -7.343638      -31221.214037
4.235           -4.7025        -7.924804      -31238.814679
4.345           -4.7025        -8.554357      -31257.683676
4.455           -4.7025        -9.236848      -31277.916382
4.565           -4.7025        -9.873414      -31299.682728
4.675           -4.7025        -10.537143     -31323.051755
4.785           -4.7025        -11.246867     -31348.136539
4.895           -4.7025        -12.005931     -31375.071053
5.005           -4.7025        -12.817904     -31404.000804
5.115           -4.7025        -13.686603     -31435.083861
5.225           -4.7025        -14.763326     -31468.579187
5.335           -4.7025        -15.989581     -31504.635671
5.445           -4.7025        -17.326651     -31543.43104
5.555           -4.7025        -18.785455     -31585.189472
5.665           -4.7025        -20.377991     -31630.15483
5.775           -4.7025        -22.117416     -31678.592351
5.885           -4.7025        -23.903885     -31730.863457
5.995           -4.7025        -25.631756     -31787.361217
6.105           -4.7025        -27.48931      -31848.315063
6.215           -4.7025        -29.48588      -31914.100454
6.325           -4.7025        -31.631279     -31985.124619
6.435           -4.7025        -33.935792     -32061.82864
6.545           -4.7025        -36.538044     -32144.76584
6.655           -4.7025        -39.783676     -32234.646235
6.765           -4.7025        -43.328366     -32331.815304
6.875           -4.7025        -47.196064     -32436.875074
6.985           -4.7025        -51.410863     -32550.468972
7.095           -4.7025        -55.996307     -32673.281542
7.205           -4.7025        -60.974442     -32806.037115
7.315           -4.7025        -65.605597     -32949.98239
7.425           -4.7025        -70.41525      -33105.584946
7.535           -4.7025        -75.517585     -33273.594555
7.645           -4.7025        -80.913677     -33454.845876
7.755           -4.7025        -86.600823     -33650.172431
7.865           -4.7025        -92.571924     -33860.388446
7.975           -4.7025        -99.731938     -34086.818967
8.085           -4.7025        -107.57825     -34329.878948
8.195           -4.7025        -115.69487     -34589.934129
8.305           -4.7025        -123.977919    -34867.395479
8.415           -4.7025        -132.288698    -35162.464924
8.525           -4.7025        -140.449547    -35475.079173
8.635           -4.7025        -147.924294    -35805.037085
8.745           -4.7025        -153.978423    -36151.823766
8.855           -4.7025        -159.425118    -36513.52176
8.965           -4.7025        -164.098075    -36888.279793
9.075           -4.7025        -167.825233    -37273.681209
9.185           -4.7025        -170.432569    -37666.723944
9.295           -4.7025        -171.450711    -38063.665347
9.405           -4.7025        -170.685233    -38460.457458
9.515           -4.7025        -167.47702     -38852.146094
9.625           -4.7025        -161.707604    -39233.858832
9.735           -4.7025        -153.392583    -39600.651823
9.845           -4.7025        -142.696589    -39947.731569
9.955           -4.7025        -129.930294    -40270.689945
10.065          -4.7025        -117.624497    -40564.378745
10.175          -4.7025        -104.766342    -40826.82302
10.285          -4.7025        -91.461825     -41056.194795
10.395          -4.7025        -77.921172     -41251.471656
10.505          -4.7025        -64.34163      -41412.449088
10.615          -4.7025        -50.886214     -41539.550605
10.725          -4.7025        -36.388239     -41632.863135
10.835          -4.7025        -21.727621     -41693.879155
10.945          -4.7025        -8.199374      -41723.98322
0.055           -4.6075        -0.123376      -31005.88445
0.165           -4.6075        -0.379417      -31006.072917
0.275           -4.6075        -0.599913      -31006.440292
0.385           -4.6075        -0.850929      -31007.007674
0.495           -4.6075        -1.107224      -31007.771115
0.605           -4.6075        -1.370519      -31008.730783
0.715           -4.6075        -1.640388      -31009.889653
0.825           -4.6075        -1.917909      -31011.25215
0.935           -4.6075        -2.203923      -31012.8237
1.045           -4.6075        -2.499574      -31014.610598
1.155           -4.6075        -2.789544      -31016.630964
1.265           -4.6075        -3.089676      -31018.883543
1.375           -4.6075        -3.401816      -31021.377067
1.485           -4.6075        -3.727181      -31024.121761
1.595           -4.6075        -4.067044      -31027.128899
1.705           -4.6075        -4.424505      -31030.41191
1.815           -4.6075        -4.822148      -31033.996081
1.925           -4.6075        -5.241539      -31037.884993
2.035           -4.6075        -5.684677      -31042.094963
2.145           -4.6075        -6.153694      -31046.643717
2.255           -4.6075        -6.650873      -31051.55048
2.365           -4.6075        -7.178658      -31056.836077
2.475           -4.6075        -7.725384      -31062.532738
2.585           -4.6075        -8.287845      -31068.66925
2.695           -4.6075        -8.884642      -31075.261148
2.805           -4.6075        -9.518413      -31082.33728
2.915           -4.6075        -10.191985     -31089.928796
3.025           -4.6075        -10.908392     -31098.069315
3.135           -4.6075        -11.700449     -31106.811461
3.245           -4.6075        -12.569849     -31116.193059
3.355           -4.6075        -13.501277     -31126.246031
3.465           -4.6075        -14.499934     -31137.016597
3.575           -4.6075        -15.571473     -31148.554664
3.685           -4.6075        -16.722046     -31160.914133
3.795           -4.6075        -17.958351     -31174.153231
3.905           -4.6075        -19.216212     -31188.384428
4.015           -4.6075        -20.560322     -31203.636868
4.125           -4.6075        -22.000494     -31219.983022
4.235           -4.6075        -23.544358     -31237.503742
4.345           -4.6075        -25.200185     -31256.286576
4.455           -4.6075        -26.986893     -31276.432128
4.565           -4.6075        -29.025437     -31298.102642
4.675           -4.6075        -31.227757     -31321.356371
4.785           -4.6075        -33.608538     -31346.315866
4.895           -4.6075        -36.183879     -31373.114166
5.005           -4.6075        -38.971421     -31401.89575
5.115           -4.6075        -41.990498     -31432.817571
5.225           -4.6075        -45.176945     -31466.109399
5.335           -4.6075        -48.518468     -31501.983511
5.445           -4.6075        -52.124688     -31540.581321
5.555           -4.6075        -56.017975     -31582.125737
5.665           -4.6075        -60.222536     -31626.859269
5.775           -4.6075        -64.764529     -31675.045717
5.885           -4.6075        -69.870586     -31727.07975
5.995           -4.6075        -75.560787     -31783.265441
6.105           -4.6075        -81.750328     -31843.879681
6.215           -4.6075        -88.484016     -31909.295836
6.325           -4.6075        -95.809932     -31979.919036
6.435           -4.6075        -103.779385    -32056.188312
6.545           -4.6075        -112.446734    -32138.578691
6.655           -4.6075        -121.357055    -32227.961571
6.765           -4.6075        -130.97192     -32324.609936
6.875           -4.6075        -141.352595    -32429.11393
6.985           -4.6075        -152.54795     -32542.116958
7.095           -4.6075        -164.605973    -32664.304286
7.205           -4.6075        -177.653761    -32796.448782
7.315           -4.6075        -192.524721    -32939.743204
7.425           -4.6075        -208.527678    -33094.595992
7.535           -4.6075        -225.692362    -33261.837604
7.645           -4.6075        -244.030292    -33442.314702
7.755           -4.6075        -263.528497    -33636.876826
7.865           -4.6075        -284.142043    -33846.358961
7.975           -4.6075        -305.234598    -34071.922225
8.085           -4.6075        -326.458163    -34314.424315
8.195           -4.6075        -348.286545    -34574.037592
8.305           -4.6075        -370.500851    -34851.21063
8.415           -4.6075        -392.822311    -35146.18756
8.525           -4.6075        -414.906523    -35458.951173
8.635           -4.6075        -436.998363    -35789.604378
8.745           -4.6075        -458.262761    -36137.258089
8.855           -4.6075        -477.39432     -36500.265331
8.965           -4.6075        -493.590555    -36876.817736
9.075           -4.6075        -505.995308    -37264.522743
9.185           -4.6075        -513.740032    -37660.3752
9.295           -4.6075        -515.999642    -38060.758312
9.405           -4.6075        -512.38046     -38460.959929
9.515           -4.6075        -502.622072    -38856.410735
9.625           -4.6075        -486.781296    -39241.972529
9.735           -4.6075        -464.905742    -39612.540596
9.845           -4.6075        -437.297385    -39963.1496
9.955           -4.6075        -404.159075    -40289.01821
10.065          -4.6075        -364.413655    -40585.190872
10.175          -4.6075        -321.116783    -40849.511401
10.285          -4.6075        -275.63091     -41080.045713
10.395          -4.6075        -229.367631    -41275.83585
10.505          -4.6075        -183.357825    -41436.804969
10.615          -4.6075        -138.569675    -41563.497031
10.725          -4.6075        -97.341815     -41655.888141
10.835          -4.6075        -58.171893     -41715.83533
10.945          -4.6075        -20.227899     -41744.785409
0.055           -4.5125        -0.203494      -31005.314108
0.165           -4.5125        -0.611513      -31005.500575
0.275           -4.5125        -1.027424      -31005.873044
0.385           -4.5125        -1.454053      -31006.431713
0.495           -4.5125        -1.869595      -31007.188628
0.605           -4.5125        -2.290355      -31008.141205
0.715           -4.5125        -2.720251      -31009.29109
0.825           -4.5125        -3.160715      -31010.642967
0.935           -4.5125        -3.613219      -31012.202166
1.045           -4.5125        -4.087593      -31013.979372
1.155           -4.5125        -4.589088      -31015.983387
1.265           -4.5125        -5.110319      -31018.217082
1.375           -4.5125        -5.653571      -31020.689597
1.485           -4.5125        -6.221235      -31023.411053
1.595           -4.5125        -6.815837      -31026.392606
1.705           -4.5125        -7.440046      -31029.64651
1.815           -4.5125        -8.084918      -31033.194614
1.925           -4.5125        -8.753429      -31037.051795
2.035           -4.5125        -9.457807      -31041.22744
2.145           -4.5125        -10.201055     -31045.739124
2.255           -4.5125        -10.986374     -31050.605906
2.365           -4.5125        -11.817171     -31055.848429
2.475           -4.5125        -12.729688     -31061.505752
2.585           -4.5125        -13.702953     -31067.589126
2.695           -4.5125        -14.739039     -31074.123571
2.805           -4.5125        -15.843137     -31081.137614
2.915           -4.5125        -17.020843     -31088.662048
3.025           -4.5125        -18.2782       -31096.730108
3.135           -4.5125        -19.620082     -31105.378816
3.245           -4.5125        -21.009838     -31114.679871
3.355           -4.5125        -22.493443     -31124.646277
3.465           -4.5125        -24.078247     -31135.323797
3.575           -4.5125        -25.772191     -31146.761838
3.685           -4.5125        -27.583858     -31159.013759
3.795           -4.5125        -29.555586     -31172.15372
3.905           -4.5125        -31.719911     -31186.255141
4.015           -4.5125        -34.046528     -31201.364676
4.125           -4.5125        -36.549218     -31217.556051
4.235           -4.5125        -39.243015     -31234.909051
4.345           -4.5125        -42.144336     -31253.510044
4.455           -4.5125        -45.271111     -31273.452569
4.565           -4.5125        -48.584079     -31294.882851
4.675           -4.5125        -52.099477     -31317.915252
4.785           -4.5125        -55.884189     -31342.635562
4.895           -4.5125        -59.96091      -31369.175288
5.005           -4.5125        -64.354334     -31397.677248
5.115           -4.5125        -69.091333     -31428.296595
5.225           -4.5125        -74.397153     -31461.298181
5.335           -4.5125        -80.162044     -31496.795616
5.445           -4.5125        -86.410389     -31534.983061
5.555           -4.5125        -93.186154     -31576.080341
5.665           -4.5125        -100.537301    -31620.326647
5.775           -4.5125        -108.51607     -31667.982232
5.885           -4.5125        -117.166298    -31719.339778
5.995           -4.5125        -126.272199    -31774.923543
6.105           -4.5125        -136.134189    -31834.886357
6.215           -4.5125        -146.815722    -31899.598144
6.325           -4.5125        -158.384525    -31969.460576
6.435           -4.5125        -170.912538    -32044.909291
6.545           -4.5125        -184.716621    -32126.533945
6.655           -4.5125        -200.036788    -32214.924313
6.765           -4.5125        -216.669757    -32310.49139
6.875           -4.5125        -234.713447    -32413.834781
6.985           -4.5125        -254.266694    -32525.597489
7.095           -4.5125        -275.42702     -32646.466338
7.205           -4.5125        -298.287648    -32777.171491
7.315           -4.5125        -322.49245     -32918.816116
7.425           -4.5125        -348.083814    -33072.225191
7.535           -4.5125        -375.436016    -33237.990704
7.645           -4.5125        -404.566486    -33416.979188
7.755           -4.5125        -435.461114    -33610.066011
7.865           -4.5125        -468.065546    -33818.118895
7.975           -4.5125        -503.559133    -34042.679073
8.085           -4.5125        -540.655184    -34283.95449
8.195           -4.5125        -578.976761    -34542.5837
8.305           -4.5125        -618.111079    -34819.105298
8.415           -4.5125        -657.51429     -35113.866461
8.525           -4.5125        -696.495339    -35426.964018
8.635           -4.5125        -734.167788    -35758.195124
8.745           -4.5125        -768.183841    -36107.601698
8.855           -4.5125        -798.909886    -36473.176198
8.965           -4.5125        -825.193416    -36853.182665
9.075           -4.5125        -845.810731    -37245.272117
9.185           -4.5125        -859.515994    -37646.442637
9.295           -4.5125        -864.928439    -38053.156087
9.405           -4.5125        -860.207199    -38460.79646
9.515           -4.5125        -844.432947    -38864.144642
9.625           -4.5125        -817.099737    -39257.860396
9.735           -4.5125        -778.234906    -39636.442295
9.845           -4.5125        -728.466962    -39994.495203
9.955           -4.5125        -669.039367    -40327.02875
10.065          -4.5125        -603.175615    -40628.67417
10.175          -4.5125        -533.06137     -40896.424932
10.285          -4.5125        -460.007873    -41128.921232
10.395          -4.5125        -385.686628    -41325.292906
10.505          -4.5125        -311.767166    -41485.711301
10.615          -4.5125        -239.943227    -41611.673095
10.725          -4.5125        -168.570792    -41702.7952
10.835          -4.5125        -99.904016     -41762.40042
10.945          -4.5125        -32.322253     -41790.390327
0.055           -4.4175        -0.281996      -31004.479117
0.165           -4.4175        -0.842953      -31004.682543
0.275           -4.4175        -1.429887      -31005.035476
0.385           -4.4175        -1.991953      -31005.582318
0.495           -4.4175        -2.581576      -31006.331005
0.605           -4.4175        -3.181914      -31007.270269
0.715           -4.4175        -3.798368      -31008.404381
0.825           -4.4175        -4.430861      -31009.73867
0.935           -4.4175        -5.082036      -31011.277894
1.045           -4.4175        -5.754557      -31013.028025
1.155           -4.4175        -6.440738      -31015.003734
1.265           -4.4175        -7.14762       -31017.210261
1.375           -4.4175        -7.8833        -31019.652821
1.485           -4.4175        -8.650793      -31022.341388
1.595           -4.4175        -9.453292      -31025.286983
1.705           -4.4175        -10.300239     -31028.504638
1.815           -4.4175        -11.20863      -31032.014295
1.925           -4.4175        -12.165797     -31035.822131
2.035           -4.4175        -13.176116     -31039.94407
2.145           -4.4175        -14.24425      -31044.397408
2.255           -4.4175        -15.375177     -31049.200898
2.365           -4.4175        -16.574217     -31054.374849
2.475           -4.4175        -17.844312     -31059.943665
2.585           -4.4175        -19.166519     -31065.950718
2.695           -4.4175        -20.571098     -31072.403097
2.805           -4.4175        -22.064556     -31079.328933
2.915           -4.4175        -23.653883     -31086.758591
3.025           -4.4175        -25.346594     -31094.724841
3.135           -4.4175        -27.190224     -31103.280893
3.245           -4.4175        -29.175126     -31112.457084
3.355           -4.4175        -31.2988       -31122.288598
3.465           -4.4175        -33.572602     -31132.820365
3.575           -4.4175        -36.008848     -31144.100884
3.685           -4.4175        -38.620908     -31156.182511
3.795           -4.4175        -41.423309     -31169.121781
3.905           -4.4175        -44.392969     -31183.0128
4.015           -4.4175        -47.550266     -31197.91748
4.125           -4.4175        -50.937902     -31213.888179
4.235           -4.4175        -54.574687     -31231.003374
4.345           -4.4175        -58.481064     -31249.348013
4.455           -4.4175        -62.708812     -31269.026132
4.565           -4.4175        -67.362183     -31290.175911
4.675           -4.4175        -72.381804     -31312.865292
4.785           -4.4175        -77.799764     -31337.212876
4.895           -4.4175        -83.651157     -31363.347389
5.005           -4.4175        -89.974363     -31391.4086
5.115           -4.4175        -96.811356     -31421.548329
5.225           -4.4175        -104.194515    -31453.945574
5.335           -4.4175        -112.026045    -31488.900605
5.445           -4.4175        -120.491123    -31526.500439
5.555           -4.4175        -129.644935    -31566.961099
5.665           -4.4175        -139.547423    -31610.517713
5.775           -4.4175        -150.263599    -31657.426213
5.885           -4.4175        -162.124431    -31708.076329
5.995           -4.4175        -175.097113    -31762.730804
6.105           -4.4175        -189.187425    -31821.681942
6.215           -4.4175        -204.494128    -31885.293273
6.325           -4.4175        -221.123266    -31953.960012
6.435           -4.4175        -239.188139    -32028.111423
6.545           -4.4175        -258.80907     -32108.213231
6.655           -4.4175        -279.841063    -32195.009058
6.765           -4.4175        -302.427837    -32289.017753
6.875           -4.4175        -326.866981    -32390.695604
6.985           -4.4175        -353.283841    -32500.684876
7.095           -4.4175        -381.802506    -32619.673746
7.205           -4.4175        -412.777471    -32748.495572
7.315           -4.4175        -446.881148    -32888.209714
7.425           -4.4175        -483.573387    -33039.346425
7.535           -4.4175        -522.93336     -33202.775129
7.645           -4.4175        -565.004067    -33379.396284
7.755           -4.4175        -609.779483    -33570.131082
7.865           -4.4175        -657.189159    -33775.907248
7.975           -4.4175        -706.930383    -33997.755267
8.085           -4.4175        -757.734837    -34237.243696
8.195           -4.4175        -810.208444    -34494.414706
8.305           -4.4175        -863.8366      -34769.920422
8.415           -4.4175        -917.947476    -35064.237003
8.525           -4.4175        -971.693679    -35377.604065
8.635           -4.4175        -1025.204447   -35710.788193
8.745           -4.4175        -1075.93588    -36062.623317
8.855           -4.4175        -1122.062785   -36431.98171
8.965           -4.4175        -1161.739136   -36817.278605
9.075           -4.4175        -1192.962202   -37216.26262
9.185           -4.4175        -1213.656257   -37625.94793
9.295           -4.4175        -1221.792065   -38042.575404
9.405           -4.4175        -1215.017455   -38461.360533
9.515           -4.4175        -1193.226781   -38876.460686
9.625           -4.4175        -1155.884922   -39282.281007
9.735           -4.4175        -1103.000718   -39672.794488
9.845           -4.4175        -1035.316536   -40042.029579
9.955           -4.4175        -953.388163    -40384.049083
10.065          -4.4175        -858.080977    -40693.200876
10.175          -4.4175        -754.618997    -40966.663118
10.285          -4.4175        -646.54667     -41202.458816
10.395          -4.4175        -537.141875    -41399.962605
10.505          -4.4175        -429.458143    -41559.676874
10.615          -4.4175        -326.034411    -41682.60482
10.725          -4.4175        -231.108429    -41770.071149
10.835          -4.4175        -135.601778    -41828.022232
10.945          -4.4175        -44.324391     -41855.692478
0.055           -4.3225        -0.361891      -31003.366454
0.165           -4.3225        -1.087215      -31003.540375
0.275           -4.3225        -1.841685      -31003.927799
0.385           -4.3225        -2.568237      -31004.447637
0.495           -4.3225        -3.29363       -31005.20515
0.605           -4.3225        -4.073978      -31006.102526
0.715           -4.3225        -4.851216      -31007.217502
0.825           -4.3225        -5.643392      -31008.530501
0.935           -4.3225        -6.456918      -31010.045108
1.045           -4.3225        -7.307798      -31011.773069
1.155           -4.3225        -8.195349      -31013.719131
1.265           -4.3225        -9.117514      -31015.888233
1.375           -4.3225        -10.078374     -31018.289204
1.485           -4.3225        -11.081968     -31020.931744
1.595           -4.3225        -12.132649     -31023.826651
1.705           -4.3225        -13.235036     -31026.985781
1.815           -4.3225        -14.391013     -31030.425011
1.925           -4.3225        -15.591014     -31034.169995
2.035           -4.3225        -16.855949     -31038.22395
2.145           -4.3225        -18.191326     -31042.603872
2.255           -4.3225        -19.60301      -31047.328186
2.365           -4.3225        -21.099199     -31052.417012
2.475           -4.3225        -22.719369     -31057.907522
2.585           -4.3225        -24.441168     -31063.809353
2.695           -4.3225        -26.272938     -31070.147978
2.805           -4.3225        -28.22365      -31076.950891
2.915           -4.3225        -30.302962     -31084.247762
3.025           -4.3225        -32.521287     -31092.070594
3.135           -4.3225        -34.889865     -31100.453905
3.245           -4.3225        -37.395758     -31109.459007
3.355           -4.3225        -40.056089     -31119.1193
3.465           -4.3225        -42.899424     -31129.467053
3.575           -4.3225        -45.940281     -31140.549782
3.685           -4.3225        -49.194369     -31152.418775
3.795           -4.3225        -52.723089     -31165.145672
3.905           -4.3225        -56.548596     -31178.79588
4.015           -4.3225        -60.657748     -31193.418072
4.125           -4.3225        -65.074307     -31209.082858
4.235           -4.3225        -69.824172     -31225.866606
4.345           -4.3225        -74.935584     -31243.851946
4.455           -4.3225        -80.439354     -31263.128317
4.565           -4.3225        -86.360808     -31283.805497
4.675           -4.3225        -92.650844     -31306.057861
4.785           -4.3225        -99.42669      -31329.933214
4.895           -4.3225        -106.72978     -31355.557255
5.005           -4.3225        -114.60528     -31383.066462
5.115           -4.3225        -123.109154    -31412.605461
5.225           -4.3225        -132.503258    -31444.431243
5.335           -4.3225        -142.671427    -31478.642413
5.445           -4.3225        -153.683304    -31515.431785
5.555           -4.3225        -165.614932    -31555.009227
5.665           -4.3225        -178.54926     -31597.603233
5.775           -4.3225        -192.576659    -31643.462616
5.885           -4.3225        -207.795419    -31692.858343
5.995           -4.3225        -224.163792    -31746.243729
6.105           -4.3225        -241.799035    -31803.906045
6.215           -4.3225        -260.91803     -31866.122868
6.325           -4.3225        -281.646482    -31933.282232
6.435           -4.3225        -304.118455    -32005.806261
6.545           -4.3225        -328.794494    -32084.262052
6.655           -4.3225        -355.866531    -32169.202541
6.765           -4.3225        -385.254441    -32261.057212
6.875           -4.3225        -417.134923    -32360.418453
6.985           -4.3225        -451.688253    -32467.926188
7.095           -4.3225        -489.094964    -32584.269795
7.205           -4.3225        -529.531362    -32710.189466
7.315           -4.3225        -573.082169    -32846.583635
7.425           -4.3225        -619.257026    -32994.786176
7.535           -4.3225        -668.737568    -33155.197648
7.645           -4.3225        -721.583821    -33328.754635
7.755           -4.3225        -777.801299    -33516.426119
7.865           -4.3225        -837.481196    -33719.258629
7.975           -4.3225        -901.662228    -33938.87376
8.085           -4.3225        -968.840026    -34175.686825
8.195           -4.3225        -1038.547282   -34430.62538
8.305           -4.3225        -1110.120819   -34704.522401
8.415           -4.3225        -1182.666202   -34998.065096
8.525           -4.3225        -1255.022833   -35311.73184
8.635           -4.3225        -1325.732738   -35645.716297
8.745           -4.3225        -1391.48444    -36000.554968
8.855           -4.3225        -1451.374134   -36374.752492
8.965           -4.3225        -1503.457218   -36766.758362
9.075           -4.3225        -1545.294481   -37174.453732
9.185           -4.3225        -1574.344294   -37594.905825
9.295           -4.3225        -1588.359615   -38025.176218
9.405           -4.3225        -1582.89103    -38459.056819
9.515           -4.3225        -1556.521563   -38890.884449
9.625           -4.3225        -1507.986666   -39314.170932
9.735           -4.3225        -1437.06191    -39721.998344
9.845           -4.3225        -1344.770793   -40107.389522
9.955           -4.3225        -1233.476666   -40463.774789
10.065          -4.3225        -1107.646155   -40784.655533
10.175          -4.3225        -973.382719    -41065.221837
10.285          -4.3225        -833.955972    -41304.642074
10.395          -4.3225        -693.542666    -41502.532597