% Model:              PurmonSmall_traj-grid.mph
% Version:            COMSOL 4.3.0.151
% Date:               Mar 5 2014, 16:08
% Dimension:          2
% Nodes:              10000
% Expressions:        2
% Description:        , 
% Length unit:        mm
% r             z              es.Er (V/m) @ TopV=3 es.Ez (V/m) @ TopV=3
0.055           -4.7025        0.003767       -23888.109245
0.165           -4.7025        0.009248       -23888.096586
0.275           -4.7025        0.01527        -23888.071008
0.385           -4.7025        0.02071        -23888.032347
0.495           -4.7025        0.025927       -23887.980608
0.605           -4.7025        0.031126       -23887.915838
0.715           -4.7025        0.036349       -23887.83795
0.825           -4.7025        0.041619       -23887.74683
0.935           -4.7025        0.046937       -23887.642336
1.045           -4.7025        0.052522       -23887.524175
1.155           -4.7025        0.059031       -23887.391778
1.265           -4.7025        0.065633       -23887.24548
1.375           -4.7025        0.072326       -23887.085102
1.485           -4.7025        0.079105       -23886.910477
1.595           -4.7025        0.085959       -23886.721445
1.705           -4.7025        0.092872       -23886.517871
1.815           -4.7025        0.098913       -23886.299089
1.925           -4.7025        0.104736       -23886.065458
2.035           -4.7025        0.110541       -23885.81712
2.145           -4.7025        0.116301       -23885.55415
2.255           -4.7025        0.121988       -23885.276714
2.365           -4.7025        0.127566       -23884.98509
2.475           -4.7025        0.133626       -23884.679293
2.585           -4.7025        0.139718       -23884.360141
2.695           -4.7025        0.145344       -23884.028679
2.805           -4.7025        0.150355       -23883.68596
2.915           -4.7025        0.154568       -23883.333321
3.025           -4.7025        0.157766       -23882.972434
3.135           -4.7025        0.159787       -23882.605448
3.245           -4.7025        0.160184       -23882.234855
3.355           -4.7025        0.159291       -23881.864113
3.465           -4.7025        0.156891       -23881.497044
3.575           -4.7025        0.152741       -23881.138221
3.685           -4.7025        0.146568       -23880.793085
3.795           -4.7025        0.137151       -23880.468613
3.905           -4.7025        0.122564       -23880.173187
4.015           -4.7025        0.102949       -23879.915554
4.125           -4.7025        0.077335       -23879.706488
4.235           -4.7025        0.044593       -23879.558583
4.345           -4.7025        0.003404       -23879.486515
4.455           -4.7025        -0.047764      -23879.507347
4.565           -4.7025        -0.100866      -23879.647439
4.675           -4.7025        -0.163048      -23879.926373
4.785           -4.7025        -0.23581       -23880.371055
4.895           -4.7025        -0.320509      -23881.012854
5.005           -4.7025        -0.418645      -23881.887885
5.115           -4.7025        -0.531864      -23883.037646
5.225           -4.7025        -0.686519      -23884.523828
5.335           -4.7025        -0.876568      -23886.396073
5.445           -4.7025        -1.101518      -23888.71534
5.555           -4.7025        -1.366894      -23891.554475
5.665           -4.7025        -1.679001      -23894.996485
5.775           -4.7025        -2.045004      -23899.135781
5.885           -4.7025        -2.443517      -23904.098702
5.995           -4.7025        -2.85663       -23910.025379
6.105           -4.7025        -3.323988      -23917.032988
6.215           -4.7025        -3.851397      -23925.279957
6.325           -4.7025        -4.445107      -23934.944602
6.435           -4.7025        -5.111819      -23946.227067
6.545           -4.7025        -5.905268      -23959.378873
6.655           -4.7025        -6.940001      -23974.71027
6.765           -4.7025        -8.126934      -23992.444035
6.875           -4.7025        -9.484092      -24012.893496
6.985           -4.7025        -11.030533     -24036.404028
7.095           -4.7025        -12.786046     -24063.354415
7.205           -4.7025        -14.770694     -24094.15772
7.315           -4.7025        -16.678809     -24129.472533
7.425           -4.7025        -18.734201     -24169.647399
7.535           -4.7025        -20.978473     -24215.176947
7.645           -4.7025        -23.418392     -24266.605656
7.755           -4.7025        -26.058964     -24324.49859
7.865           -4.7025        -28.903067     -24389.432725
7.975           -4.7025        -32.428362     -24462.26968
8.085           -4.7025        -36.394739     -24543.4328
8.195           -4.7025        -40.620693     -24633.349938
8.305           -4.7025        -45.061981     -24732.47472
8.415           -4.7025        -49.653618     -24841.166673
8.525           -4.7025        -54.306785     -24959.657349
8.635           -4.7025        -58.697752     -25088.139713
8.745           -4.7025        -62.409682     -25226.630977
8.855           -4.7025        -65.887751     -25374.361111
8.965           -4.7025        -69.036502     -25530.594246
9.075           -4.7025        -71.75551      -25694.268475
9.185           -4.7025        -73.941555     -25863.977076
9.295           -4.7025        -75.370652     -26037.902097
9.405           -4.7025        -76.024412     -26214.05608
9.515           -4.7025        -75.399599     -26389.779863
9.625           -4.7025        -73.410086     -26562.490227
9.735           -4.7025        -70.047016     -26729.531451
9.845           -4.7025        -65.389692     -26888.305244
9.955           -4.7025        -59.605262     -27036.410319
10.065          -4.7025        -53.917345     -27171.142639
10.175          -4.7025        -47.906037     -27291.365017
10.285          -4.7025        -41.670758     -27396.100177
10.395          -4.7025        -35.336531     -27484.856101
10.505          -4.7025        -29.019372     -27557.610732
10.615          -4.7025        -22.815053     -27614.702124
10.725          -4.7025        -16.228958     -27656.368934
10.835          -4.7025        -9.644717      -27683.472832
10.945          -4.7025        -3.630704      -27696.804103
0.055           -4.6075        0.008371       -23888.127622
0.165           -4.6075        0.025727       -23888.114822
0.275           -4.6075        0.04062        -23888.089885
0.385           -4.6075        0.057491       -23888.05145
0.495           -4.6075        0.074586       -23887.999861
0.605           -4.6075        0.091973       -23887.935225
0.715           -4.6075        0.109573       -23887.857488
0.825           -4.6075        0.127405       -23887.766533
0.935           -4.6075        0.145464       -23887.662213
1.045           -4.6075        0.163758       -23887.544368
1.155           -4.6075        0.1813         -23887.412191
1.265           -4.6075        0.199001       -23887.266077
1.375           -4.6075        0.216916       -23887.105882
1.485           -4.6075        0.235033       -23886.931429
1.595           -4.6075        0.253334       -23886.742556
1.705           -4.6075        0.271856       -23886.539076
1.815           -4.6075        0.291564       -23886.320261
1.925           -4.6075        0.311325       -23886.086686
2.035           -4.6075        0.331046       -23885.838338
2.145           -4.6075        0.35061        -23885.575274
2.255           -4.6075        0.369869       -23885.297642
2.365           -4.6075        0.388641       -23885.005694
2.475           -4.6075        0.406297       -23884.699585
2.585           -4.6075        0.4224         -23884.379793
2.695           -4.6075        0.437355       -23884.04749
2.805           -4.6075        0.450851       -23883.703693
2.915           -4.6075        0.462524       -23883.349699
3.025           -4.6075        0.471947       -23882.987136
3.135           -4.6075        0.478604       -23882.617913
3.245           -4.6075        0.481591       -23882.244636
3.355           -4.6075        0.479815       -23881.870619
3.465           -4.6075        0.472268       -23881.499584
3.575           -4.6075        0.457774       -23881.135991
3.685           -4.6075        0.434961       -23880.785149
3.795           -4.6075        0.402234       -23880.453352
3.905           -4.6075        0.360272       -23880.150295
4.015           -4.6075        0.305703       -23879.883607
4.125           -4.6075        0.23679        -23879.663991
4.235           -4.6075        0.151227       -23879.503828
4.345           -4.6075        0.046395       -23879.41756
4.455           -4.6075        -0.081912      -23879.422671
4.565           -4.6075        -0.246988      -23879.542914
4.675           -4.6075        -0.446714      -23879.798414
4.785           -4.6075        -0.686732      -23880.215883
4.895           -4.6075        -0.973513      -23880.826146
5.005           -4.6075        -1.314456      -23881.664703
5.115           -4.6075        -1.718012      -23882.772359
5.225           -4.6075        -2.180311      -23884.206155
5.335           -4.6075        -2.706721      -23886.025014
5.445           -4.6075        -3.317249      -23888.283523
5.555           -4.6075        -4.023273      -23891.053639
5.665           -4.6075        -4.837499      -23894.417399
5.775           -4.6075        -5.774076      -23898.468152
5.885           -4.6075        -6.897569      -23903.336458
5.995           -4.6075        -8.22855       -23909.143049
6.105           -4.6075        -9.765288      -23916.014359
6.215           -4.6075        -11.535316     -23924.107025
6.325           -4.6075        -13.569132     -23933.597462
6.435           -4.6075        -15.90033      -23944.68384
6.545           -4.6075        -18.56569      -23957.588133
6.655           -4.6075        -21.437842     -23972.682657
6.765           -4.6075        -24.679604     -23990.15539
6.875           -4.6075        -28.326447     -24010.317494
6.985           -4.6075        -32.417116     -24033.513156
7.095           -4.6075        -36.991624     -24060.120306
7.205           -4.6075        -42.129459     -24090.573662
7.315           -4.6075        -48.203096     -24125.489747
7.425           -4.6075        -54.974991     -24165.212532
7.535           -4.6075        -62.488923     -24210.262853
7.645           -4.6075        -70.7812       -24261.190246
7.755           -4.6075        -79.876923     -24318.567238
7.865           -4.6075        -89.78543      -24382.981171
7.975           -4.6075        -100.214387    -24455.214667
8.085           -4.6075        -111.014601    -24535.91704
8.195           -4.6075        -122.414757    -24625.418468
8.305           -4.6075        -134.320341    -24724.194561
8.415           -4.6075        -146.60111     -24832.6301
8.525           -4.6075        -159.086799    -24950.984829
8.635           -4.6075        -171.981587    -25079.621184
8.745           -4.6075        -184.838432    -25218.348692
8.855           -4.6075        -196.926144    -25366.560852
8.965           -4.6075        -207.788027    -25523.552445
9.075           -4.6075        -216.925376    -25688.281895
9.185           -4.6075        -223.820833    -25859.347211
9.295           -4.6075        -227.971089    -26034.978709
9.405           -4.6075        -228.933547    -26212.880686
9.515           -4.6075        -226.649829    -26390.578835
9.625           -4.6075        -221.115203    -26565.335783
9.735           -4.6075        -212.321468    -26734.401805
9.845           -4.6075        -200.410476    -26895.076673
9.955           -4.6075        -185.495645    -27044.753831
10.065          -4.6075        -167.165787    -27180.826579
10.175          -4.6075        -146.934964    -27302.019002
10.285          -4.6075        -125.585354    -27407.31053
10.395          -4.6075        -103.920159    -27496.245721
10.505          -4.6075        -82.539879     -27568.878831
10.615          -4.6075        -61.971502     -27625.631794
10.725          -4.6075        -43.290261     -27666.738952
10.835          -4.6075        -25.767385     -27693.250995
10.945          -4.6075        -8.939165      -27706.012801
0.055           -4.5125        0.013827       -23888.166348
0.165           -4.5125        0.041517       -23888.153625
0.275           -4.5125        0.069676       -23888.128233
0.385           -4.5125        0.098371       -23888.090205
0.495           -4.5125        0.126105       -23888.038823
0.605           -4.5125        0.153915       -23887.974374
0.715           -4.5125        0.181997       -23887.896886
0.825           -4.5125        0.210366       -23887.806218
0.935           -4.5125        0.239042       -23887.702223
1.045           -4.5125        0.268542       -23887.584443
1.155           -4.5125        0.29903        -23887.452615
1.265           -4.5125        0.329932       -23887.306895
1.375           -4.5125        0.361243       -23887.147089
1.485           -4.5125        0.392943       -23886.973009
1.595           -4.5125        0.424994       -23886.784473
1.705           -4.5125        0.457338       -23886.58132
1.815           -4.5125        0.489277       -23886.363028
1.925           -4.5125        0.520773       -23886.129554
2.035           -4.5125        0.552213       -23885.88119
2.145           -4.5125        0.583431       -23885.617964
2.255           -4.5125        0.614225       -23885.339991
2.365           -4.5125        0.644346       -23885.047484
2.475           -4.5125        0.674429       -23884.740138
2.585           -4.5125        0.703073       -23884.419097
2.695           -4.5125        0.729716       -23884.085107
2.805           -4.5125        0.753757       -23883.739103
2.915           -4.5125        0.774483       -23883.382281
3.025           -4.5125        0.791052       -23883.016156
3.135           -4.5125        0.80248        -23882.642624
3.245           -4.5125        0.807104       -23882.264123
3.355           -4.5125        0.804505       -23881.883818
3.465           -4.5125        0.793257       -23881.505266
3.575           -4.5125        0.771713       -23881.132738
3.685           -4.5125        0.737973       -23880.771336
3.795           -4.5125        0.688815       -23880.427309
3.905           -4.5125        0.619769       -23880.108549
4.015           -4.5125        0.528743       -23879.823422
4.125           -4.5125        0.411838       -23879.582072
4.235           -4.5125        0.264559       -23879.396374
4.345           -4.5125        0.081731       -23879.280188
4.455           -4.5125        -0.142599      -23879.249649
4.565           -4.5125        -0.411069      -23879.327798
4.675           -4.5125        -0.729789      -23879.538065
4.785           -4.5125        -1.109304      -23879.903518
4.895           -4.5125        -1.558733      -23880.45409
5.005           -4.5125        -2.0884        -23881.224282
5.115           -4.5125        -2.709972      -23882.25379
5.225           -4.5125        -3.46768       -23883.600307
5.335           -4.5125        -4.360465      -23885.310375
5.445           -4.5125        -5.405205      -23887.443892
5.555           -4.5125        -6.624102      -23890.070676
5.665           -4.5125        -8.042216      -23893.270392
5.775           -4.5125        -9.687766      -23897.133776
5.885           -4.5125        -11.58901      -23901.766678
5.995           -4.5125        -13.722793     -23907.34041
6.105           -4.5125        -16.168605     -23913.949592
6.215           -4.5125        -18.965485     -23921.747895
6.325           -4.5125        -22.156337     -23930.908615
6.435           -4.5125        -25.788085     -23941.62668
6.545           -4.5125        -29.989411     -23954.153939
6.655           -4.5125        -34.884445     -23968.766278
6.765           -4.5125        -40.448207     -23985.700727
6.875           -4.5125        -46.754227     -24005.265566
6.985           -4.5125        -53.880116     -24027.801899
7.095           -4.5125        -61.906611     -24053.685436
7.205           -4.5125        -70.916176     -24083.327882
7.315           -4.5125        -80.81633      -24117.321103
7.425           -4.5125        -91.657376     -24156.170202
7.535           -4.5125        -103.623811    -24200.298018
7.645           -4.5125        -116.767705    -24250.262459
7.755           -4.5125        -131.126751    -24306.647985
7.865           -4.5125        -146.718972    -24370.058093
7.975           -4.5125        -164.198633    -24441.442687
8.085           -4.5125        -182.990874    -24521.156099
8.195           -4.5125        -202.948048    -24609.759129
8.305           -4.5125        -223.896713    -24707.779701
8.415           -4.5125        -245.585634    -24815.664081
8.525           -4.5125        -267.67404     -24933.74175
8.635           -4.5125        -289.698805    -25062.198023
8.745           -4.5125        -310.335617    -25201.422448
8.855           -4.5125        -329.776157    -25350.585773
8.965           -4.5125        -347.363372    -25509.034691
9.075           -4.5125        -362.384502    -25675.76372
9.185           -4.5125        -374.098791    -25849.383892
9.295           -4.5125        -381.766957    -26028.223713
9.405           -4.5125        -384.324263    -26209.954374
9.515           -4.5125        -381.067071    -26391.792196
9.625           -4.5125        -371.625759    -26570.886813
9.735           -4.5125        -355.939456    -26744.256841
9.845           -4.5125        -334.30316     -26908.946983
9.955           -4.5125        -307.380891    -27062.205584
10.065          -4.5125        -276.832271    -27201.15213
10.175          -4.5125        -243.943746    -27324.114015
10.285          -4.5125        -209.559904    -27430.336001
10.395          -4.5125        -174.666763    -27519.416076
10.505          -4.5125        -140.222441    -27591.556695
10.615          -4.5125        -107.156868    -27647.673865
10.725          -4.5125        -74.785293     -27687.870596
10.835          -4.5125        -44.113814     -27713.967921
10.945          -4.5125        -14.232168     -27726.133654
0.055           -4.4175        0.019199       -23888.223145
0.165           -4.4175        0.057352       -23888.209161
0.275           -4.4175        0.097173       -23888.184964
0.385           -4.4175        0.135064       -23888.147498
0.495           -4.4175        0.174548       -23888.09634
0.605           -4.4175        0.214348       -23888.03235
0.715           -4.4175        0.254734       -23887.955375
0.825           -4.4175        0.295585       -23887.865218
0.935           -4.4175        0.336948       -23887.76176
1.045           -4.4175        0.378857       -23887.644833
1.155           -4.4175        0.420639       -23887.513789
1.265           -4.4175        0.462646       -23887.368646
1.375           -4.4175        0.505197       -23887.20941
1.485           -4.4175        0.548269       -23887.035877
1.595           -4.4175        0.591822       -23886.847848
1.705           -4.4175        0.636144       -23886.644925
1.815           -4.4175        0.681597       -23886.426664
1.925           -4.4175        0.72723        -23886.193408
2.035           -4.4175        0.772847       -23885.945074
2.145           -4.4175        0.818203       -23885.681641
2.255           -4.4175        0.862989       -23885.403159
2.365           -4.4175        0.906826       -23885.109776
2.475           -4.4175        0.949038       -23884.801636
2.585           -4.4175        0.988309       -23884.478798
2.695           -4.4175        1.024999       -23884.142427
2.805           -4.4175        1.058359       -23883.793352
2.915           -4.4175        1.087506       -23883.432652
3.025           -4.4175        1.111406       -23883.061707
3.135           -4.4175        1.129181       -23882.681653
3.245           -4.4175        1.138318       -23882.295384
3.355           -4.4175        1.137111       -23881.905583
3.465           -4.4175        1.123401       -23881.515512
3.575           -4.4175        1.094674       -23881.129108
3.685           -4.4175        1.048008       -23880.751082
3.795           -4.4175        0.980015       -23880.387044
3.905           -4.4175        0.886842       -23880.044825
4.015           -4.4175        0.765505       -23879.733259
4.125           -4.4175        0.610549       -23879.461077
4.235           -4.4175        0.416373       -23879.239532
4.345           -4.4175        0.176571       -23879.081788
4.455           -4.4175        -0.117584      -23879.002933
4.565           -4.4175        -0.484923      -23879.024884
4.675           -4.4175        -0.928601      -23879.166398
4.785           -4.4175        -1.460825      -23879.451966
4.895           -4.4175        -2.095548      -23879.909907
5.005           -4.4175        -2.848685      -23880.572905
5.115           -4.4175        -3.738365      -23881.478603
5.225           -4.4175        -4.785452      -23882.67174
5.335           -4.4175        -5.991401      -23884.224736
5.445           -4.4175        -7.395918      -23886.179387
5.555           -4.4175        -9.026828      -23888.602872
5.665           -4.4175        -10.915359     -23891.571958
5.775           -4.4175        -13.096472     -23895.174212
5.885           -4.4175        -15.66746      -23899.526525
5.995           -4.4175        -18.664132     -23904.745425
6.105           -4.4175        -22.117606     -23910.951547
6.215           -4.4175        -26.088165     -23918.293142
6.325           -4.4175        -30.642553     -23926.937754
6.435           -4.4175        -35.854306     -23937.074282
6.545           -4.4175        -41.804015     -23948.915173
6.655           -4.4175        -48.508979     -23962.777486
6.765           -4.4175        -56.042099     -23978.934919
6.875           -4.4175        -64.548223     -23997.643046
6.985           -4.4175        -74.125383     -24019.239017
7.095           -4.4175        -84.875506     -24044.09549
7.205           -4.4175        -96.99035      -24072.649941
7.315           -4.4175        -110.849641    -24105.478202
7.425           -4.4175        -126.297301    -24142.96375
7.535           -4.4175        -143.437874    -24185.640978
7.645           -4.4175        -162.36186     -24234.081571
7.755           -4.4175        -183.138149    -24288.890832
7.865           -4.4175        -205.80472     -24350.701742
7.975           -4.4175        -230.299689    -24420.219651
8.085           -4.4175        -256.043982    -24498.487393
8.195           -4.4175        -283.356626    -24585.766972
8.305           -4.4175        -312.023096    -24682.652291
8.415           -4.4175        -341.735634    -24789.66639
8.525           -4.4175        -372.07996     -24907.225666
8.635           -4.4175        -403.230965    -25036.05336
8.745           -4.4175        -433.832755    -25175.873041
8.855           -4.4175        -462.846235    -25326.382818
8.965           -4.4175        -489.223383    -25487.035139
9.075           -4.4175        -511.800037    -25656.901412
9.185           -4.4175        -529.342489    -25834.623166
9.295           -4.4175        -540.616788    -26018.379112
9.405           -4.4175        -544.081775    -26205.819681
9.515           -4.4175        -539.547726    -26393.845851
9.625           -4.4175        -526.669628    -26579.405242
9.735           -4.4175        -505.35397     -26759.209204
9.845           -4.4175        -475.940181    -26929.95973
9.955           -4.4175        -438.761865    -27088.389783
10.065          -4.4175        -394.386854    -27231.395801
10.175          -4.4175        -345.61142     -27357.325688
10.285          -4.4175        -294.476807    -27465.11292
10.395          -4.4175        -242.895221    -27554.489985
10.505          -4.4175        -192.615742    -27625.87068
10.615          -4.4175        -144.996593    -27680.080781
10.725          -4.4175        -102.025764    -27718.069199
10.835          -4.4175        -59.52517      -27743.052154
10.945          -4.4175        -19.413646     -27754.808317
0.055           -4.3225        0.02471        -23888.299006
0.165           -4.3225        0.074193       -23888.286948
0.275           -4.3225        0.12552        -23888.260156
0.385           -4.3225        0.174693       -23888.224222
0.495           -4.3225        0.223299       -23888.171943
0.605           -4.3225        0.275253       -23888.110275
0.715           -4.3225        0.326344       -23888.033904
0.825           -4.3225        0.377699       -23887.944358
0.935           -4.3225        0.429603       -23887.841579
1.045           -4.3225        0.482943       -23887.724953
1.155           -4.3225        0.537349       -23887.594507
1.265           -4.3225        0.592533       -23887.450193
1.375           -4.3225        0.648502       -23887.291782
1.485           -4.3225        0.705223       -23887.119048
1.595           -4.3225        0.762643       -23886.931762
1.705           -4.3225        0.820673       -23886.7297
1.815           -4.3225        0.87888        -23886.512462
1.925           -4.3225        0.936504       -23886.279512
2.035           -4.3225        0.994159       -23886.031266
2.145           -4.3225        1.051559       -23885.767645
2.255           -4.3225        1.108346       -23885.488638
2.365           -4.3225        1.164381       -23885.194121
2.475           -4.3225        1.219609       -23884.883874
2.585           -4.3225        1.272463       -23884.558784
2.695           -4.3225        1.322106       -23884.219327
2.805           -4.3225        1.367537       -23883.866165
2.915           -4.3225        1.407571       -23883.500188
3.025           -4.3225        1.440805       -23883.122556
3.135           -4.3225        1.465591       -23882.734743
3.245           -4.3225        1.478735       -23882.338396
3.355           -4.3225        1.479528       -23881.936665
3.465           -4.3225        1.465338       -23881.532295
3.575           -4.3225        1.433225       -23881.12886
3.685           -4.3225        1.379793       -23880.730661
3.795           -4.3225        1.300707       -23880.341866
3.905           -4.3225        1.188266       -23879.970597
4.015           -4.3225        1.038614       -23879.623598
4.125           -4.3225        0.845171       -23879.309598
4.235           -4.3225        0.600353       -23879.03886
4.345           -4.3225        0.295434       -23878.823417
4.455           -4.3225        -0.079606      -23878.677331
4.565           -4.3225        -0.538556      -23878.617095
4.675           -4.3225        -1.085416      -23878.671213
4.785           -4.3225        -1.739385      -23878.856195
4.895           -4.3225        -2.516864      -23879.198612
5.005           -4.3225        -3.436479      -23879.72919
5.115           -4.3225        -4.516127      -23880.47936
5.225           -4.3225        -5.820872      -23881.50586
5.335           -4.3225        -7.352652      -23882.84743
5.445           -4.3225        -9.145003      -23884.558956
5.555           -4.3225        -11.235867     -23886.703387
5.665           -4.3225        -13.668073     -23889.352796
5.775           -4.3225        -16.489855     -23892.589553
5.885           -4.3225        -19.755396     -23896.507633
5.995           -4.3225        -23.510843     -23901.249256
6.105           -4.3225        -27.797092     -23906.942656
6.215           -4.3225        -32.711184     -23913.707744
6.325           -4.3225        -38.331968     -23921.705721
6.435           -4.3225        -44.746068     -23931.11885
6.545           -4.3225        -52.137244     -23942.166024
6.655           -4.3225        -60.666875     -23955.124078
6.765           -4.3225        -70.365405     -23970.217715
6.875           -4.3225        -81.363504     -23987.742685
6.985           -4.3225        -93.800055     -24008.029077
7.095           -4.3225        -107.820858    -24031.443964
7.205           -4.3225        -123.576646    -24058.393902
7.315           -4.3225        -141.219021    -24089.361589
7.425           -4.3225        -160.603395    -24125.084766
7.535           -4.3225        -182.0792      -24165.891481
7.645           -4.3225        -205.759248    -24212.367734
7.755           -4.3225        -231.73263     -24265.140039
7.865           -4.3225        -260.103165    -24324.872497
7.975           -4.3225        -291.571576    -24392.593736
8.085           -4.3225        -325.460244    -24468.760311
8.195           -4.3225        -361.618452    -24554.091615
8.305           -4.3225        -399.783577    -24649.285727
8.415           -4.3225        -439.557131    -24754.990641
8.525           -4.3225        -480.380314    -24871.767708
8.635           -4.3225        -521.510947    -25000.04647
8.745           -4.3225        -561.183319    -25140.506131
8.855           -4.3225        -598.77401     -25292.713468
8.965           -4.3225        -633.213183    -25456.127545
9.075           -4.3225        -663.084181    -25629.920394
9.185           -4.3225        -686.878869    -25812.789406
9.295           -4.3225        -703.361556    -26003.447437
9.405           -4.3225        -709.873907    -26198.703262
9.515           -4.3225        -705.343319    -26395.537383
9.625           -4.3225        -688.881009    -26590.445375
9.735           -4.3225        -660.200273    -26779.618267
9.845           -4.3225        -619.752301    -26959.159871
9.955           -4.3225        -568.793596    -27125.365854
10.065          -4.3225        -509.725117    -27274.627736
10.175          -4.3225        -446.009152    -27404.248845
10.285          -4.3225        -379.665761    -27513.718865
10.395          -4.3225        -313.124449    -27602.911487