% Model:              PurmonSmall_traj-grid.mph
% Version:            COMSOL 4.3.0.151
% Date:               Mar 5 2014, 16:09
% Dimension:          2
% Nodes:              10000
% Expressions:        2
% Description:        , 
% Length unit:        mm
% r             z              es.Er (V/m) @ TopV=8 es.Ez (V/m) @ TopV=8
0.055           -4.7025        -0.216656      -50333.200593
0.165           -4.7025        -0.532322      -50333.928681
0.275           -4.7025        -0.880444      -50335.40111
0.385           -4.7025        -1.196526      -50337.630939
0.495           -4.7025        -1.502219      -50340.622367
0.605           -4.7025        -1.80962       -50344.37929
0.715           -4.7025        -2.121698      -50348.91496
0.825           -4.7025        -2.44047       -50354.246116
0.935           -4.7025        -2.766669      -50360.393409
1.045           -4.7025        -3.115984      -50367.389809
1.155           -4.7025        -3.531236      -50375.287686
1.265           -4.7025        -3.963393      -50384.087556
1.375           -4.7025        -4.414557      -50393.824318
1.485           -4.7025        -4.886932      -50404.536578
1.595           -4.7025        -5.38284       -50416.266825
1.705           -4.7025        -5.904735      -50429.06161
1.815           -4.7025        -6.379593      -50443.019693
1.925           -4.7025        -6.862099      -50458.163701
2.035           -4.7025        -7.367281      -50474.545883
2.145           -4.7025        -7.896708      -50492.232237
2.255           -4.7025        -8.452018      -50511.29412
2.365           -4.7025        -9.034926      -50531.808562
2.475           -4.7025        -9.739426      -50553.913669
2.585           -4.7025        -10.526077     -50577.673872
2.695           -4.7025        -11.364932     -50603.166533
2.805           -4.7025        -12.260379     -50630.496465
2.915           -4.7025        -13.217133     -50659.776291
3.025           -4.7025        -14.240264     -50691.126961
3.135           -4.7025        -15.273143     -50724.717742
3.245           -4.7025        -16.249917     -50760.734399
3.355           -4.7025        -17.282934     -50799.25829
3.465           -4.7025        -18.37565      -50840.451787
3.575           -4.7025        -19.531708     -50884.489031
3.685           -4.7025        -20.754944     -50931.556754
3.795           -4.7025        -22.110109     -50981.891571
3.905           -4.7025        -23.776994     -51035.811448
4.015           -4.7025        -25.568002     -51093.432848
4.125           -4.7025        -27.493194     -51155.005541
4.235           -4.7025        -29.56345      -51220.797354
4.345           -4.7025        -31.790542     -51291.095467
4.455           -4.7025        -34.18721      -51366.20781
4.565           -4.7025        -36.408009     -51446.694146
4.675           -4.7025        -38.705068     -51532.757802
4.785           -4.7025        -41.144286     -51624.745828
4.895           -4.7025        -43.734393     -51723.070791
5.005           -4.7025        -46.484591     -51828.175211
5.115           -4.7025        -49.404583     -51940.533684
5.225           -4.7025        -52.984921     -52060.940806
5.335           -4.7025        -57.0247       -52189.814945
5.445           -4.7025        -61.381421     -52327.650871
5.555           -4.7025        -66.080641     -52475.083671
5.665           -4.7025        -71.149821     -52632.793959
5.775           -4.7025        -76.618385     -52801.510807
5.885           -4.7025        -82.173456     -52982.233933
5.995           -4.7025        -87.471183     -53176.043196
6.105           -4.7025        -93.103421     -53383.472823
6.215           -4.7025        -99.089081     -53605.487556
6.325           -4.7025        -105.447654    -53843.116179
6.435           -4.7025        -112.199155    -54097.453967
6.545           -4.7025        -119.712702    -54369.873709
6.655           -4.7025        -128.961406    -54662.170864
6.765           -4.7025        -138.907919    -54975.024079
6.875           -4.7025        -149.592279    -55309.819264
6.985           -4.7025        -161.052251    -55668.009113
7.095           -4.7025        -173.321573    -56051.108382
7.205           -4.7025        -186.427678    -56460.68656
7.315           -4.7025        -198.452479    -56899.587192
7.425           -4.7025        -210.74055     -57368.601059
7.535           -4.7025        -223.603149    -57869.170701
7.645           -4.7025        -237.025897    -58402.918684
7.755           -4.7025        -250.985152    -58971.407444
7.865           -4.7025        -265.446735    -59576.095396
7.975           -4.7025        -282.475804    -60219.565891
8.085           -4.7025        -300.856984    -60902.211099
8.195           -4.7025        -319.537606    -61624.22811
8.305           -4.7025        -338.251873    -62385.912075
8.415           -4.7025        -356.660933    -63187.036992
8.525           -4.7025        -374.345903    -64026.739007
8.635           -4.7025        -390.193784    -64903.746902
8.745           -4.7025        -402.607493    -65816.100994
8.855           -4.7025        -413.399435    -66758.768318
8.965           -4.7025        -422.210945    -67726.86903
9.075           -4.7025        -428.675449    -68714.308033
9.185           -4.7025        -432.426682    -69713.751571
9.295           -4.7025        -432.328989    -70716.231011
9.405           -4.7025        -427.709973    -71712.103679
9.515           -4.7025        -417.487266    -72690.183917
9.625           -4.7025        -401.45459     -73639.383604
9.735           -4.7025        -379.693945    -74548.546136
9.845           -4.7025        -352.601647    -75406.917546
9.955           -4.7025        -320.878068    -76204.640708
10.065          -4.7025        -290.603286    -76929.930962
10.175          -4.7025        -259.154451    -77578.538653
10.285          -4.7025        -226.655413    -78146.325975
10.395          -4.7025        -193.547746    -78630.830372
10.505          -4.7025        -160.249251    -79031.351917
10.615          -4.7025        -127.105527    -79348.546171
10.725          -4.7025        -91.125077     -79582.088073
10.835          -4.7025        -54.535335     -79735.18289
10.945          -4.7025        -20.604307     -79810.828743
0.055           -4.6075        -0.481099      -50332.14403
0.165           -4.6075        -1.479471      -50332.878979
0.275           -4.6075        -2.339098      -50334.311568
0.385           -4.6075        -3.317487      -50336.523873
0.495           -4.6075        -4.316095      -50339.500298
0.605           -4.6075        -5.341504      -50343.241175
0.715           -4.6075        -6.391913      -50347.757704
0.825           -4.6075        -7.47138       -50353.066637
0.935           -4.6075        -8.58302       -50359.188539
1.045           -4.6075        -9.7311        -50366.147231
1.155           -4.6075        -10.856033     -50374.012218
1.265           -4.6075        -12.01915      -50382.777772
1.375           -4.6075        -13.227462     -50392.476721
1.485           -4.6075        -14.485454     -50403.147533
1.595           -4.6075        -15.797809     -50414.83254
1.705           -4.6075        -17.176146     -50427.58213
1.815           -4.6075        -18.706991     -50441.492239
1.925           -4.6075        -20.318775     -50456.5746
2.035           -4.6075        -22.018674     -50472.889875
2.145           -4.6075        -23.814295     -50490.503761
2.255           -4.6075        -25.713715     -50509.487288
2.365           -4.6075        -27.725525     -50529.917133
2.475           -4.6075        -29.80467      -50551.912621
2.585           -4.6075        -31.938057     -50575.579402
2.695           -4.6075        -34.195893     -50600.972013
2.805           -4.6075        -36.587136     -50628.194871
2.915           -4.6075        -39.121298     -50657.360174
3.025           -4.6075        -41.80849      -50688.588414
3.135           -4.6075        -44.76923      -50722.069912
3.245           -4.6075        -48.007349     -50757.938118
3.355           -4.6075        -51.462985     -50796.302636
3.465           -4.6075        -55.152723     -50837.325073
3.575           -4.6075        -59.09437      -50881.17874
3.685           -4.6075        -63.307056     -50928.049472
3.795           -4.6075        -67.811339     -50978.136503
3.905           -4.6075        -72.370629     -51031.831363
4.015           -4.6075        -77.216124     -51089.221614
4.125           -4.6075        -82.379559     -51150.547442
4.235           -4.6075        -87.883032     -51216.07561
4.345           -4.6075        -93.750148     -51286.092165
4.455           -4.6075        -100.039773    -51360.923399
4.565           -4.6075        -107.165192    -51441.107589
4.675           -4.6075        -114.80499     -51526.80652
4.785           -4.6075        -122.998408    -51618.402958
4.895           -4.6075        -131.787688    -51716.307479
5.005           -4.6075        -141.218279    -51820.960465
5.115           -4.6075        -151.339066    -51932.834238
5.225           -4.6075        -161.922169    -52052.627559
5.335           -4.6075        -172.907336    -52180.969097
5.445           -4.6075        -184.647514    -52318.23602
5.555           -4.6075        -197.19491     -52465.061105
5.665           -4.6075        -210.604969    -52622.122576
5.775           -4.6075        -224.936454    -52790.147047
5.885           -4.6075        -240.856038    -52970.246298
5.995           -4.6075        -258.382469    -53163.222216
6.105           -4.6075        -277.205388    -53369.760209
6.215           -4.6075        -297.416488    -53590.822121
6.325           -4.6075        -319.111609    -53827.434083
6.435           -4.6075        -342.390151    -54080.689118
6.545           -4.6075        -367.35421     -54351.749351
6.655           -4.6075        -392.659473    -54642.841294
6.765           -4.6075        -419.578699    -54954.468738
6.875           -4.6075        -448.243195    -55287.97933
6.985           -4.6075        -478.729321    -55644.828907
7.095           -4.6075        -511.106715    -56026.537231
7.205           -4.6075        -545.631749    -56434.795311
7.315           -4.6075        -584.389359    -56872.36052
7.425           -4.6075        -625.456659    -57339.816333
7.535           -4.6075        -668.825233    -57838.833906
7.645           -4.6075        -714.4393      -58371.066661
7.755           -4.6075        -762.182507    -58938.116288
7.865           -4.6075        -811.862564    -59541.490176
7.975           -4.6075        -861.90911     -60183.377146
8.085           -4.6075        -911.434343    -60865.2007
8.195           -4.6075        -961.577632    -61586.704684
8.305           -4.6075        -1011.782361   -62348.264272
8.415           -4.6075        -1061.366484   -63149.741695
8.525           -4.6075        -1109.512774   -63990.367756
8.635           -4.6075        -1156.576612   -64869.540697
8.745           -4.6075        -1200.669347   -65784.474537
8.855           -4.6075        -1238.926487   -66730.697197
8.965           -4.6075        -1269.606646   -67703.405016
9.075           -4.6075        -1290.883114   -68696.537208
9.185           -4.6075        -1300.933785   -69702.735697
9.295           -4.6075        -1298.059876   -70713.368375
9.405           -4.6075        -1282.000543   -71717.161919
9.515           -4.6075        -1251.946802   -72703.8586
9.625           -4.6075        -1208.122581   -73661.801453
9.735           -4.6075        -1150.727043   -74579.491447
9.845           -4.6075        -1080.496921   -75445.812983
9.955           -4.6075        -997.877899    -76250.079747
10.065          -4.6075        -899.984564    -76980.958538
10.175          -4.6075        -794.058347    -77633.903039
10.285          -4.6075        -683.037264    -78204.498779
10.395          -4.6075        -569.984832    -78690.423363
10.505          -4.6075        -457.100498    -79091.243981
10.615          -4.6075        -346.550392    -79407.835922
10.725          -4.6075        -244.103553    -79639.474127
10.835          -4.6075        -146.157188    -79790.205019
10.945          -4.6075        -50.879272     -79863.109784
0.055           -4.5125        -0.793567      -50329.919933
0.165           -4.5125        -2.384633      -50330.647248
0.275           -4.5125        -4.006288      -50332.099995
0.385           -4.5125        -5.669223      -50334.278824
0.495           -4.5125        -7.288355      -50337.230441
0.605           -4.5125        -8.92708       -50340.944466
0.715           -4.5125        -10.600483     -50345.426936
0.825           -4.5125        -12.313934     -50350.695636
0.935           -4.5125        -14.072946     -50356.770772
1.045           -4.5125        -15.915447     -50363.693276
1.155           -4.5125        -17.861395     -50371.496568
1.265           -4.5125        -19.881784     -50380.190894
1.375           -4.5125        -21.9851       -50389.810735
1.485           -4.5125        -24.180169     -50400.3942
1.595           -4.5125        -26.47627      -50411.983233
1.705           -4.5125        -28.883163     -50424.6238
1.815           -4.5125        -31.365722     -50438.398491
1.925           -4.5125        -33.934907     -50453.36269
2.035           -4.5125        -36.637188     -50469.550485
2.145           -4.5125        -39.483284     -50487.027089
2.255           -4.5125        -42.484525     -50505.863002
2.365           -4.5125        -45.652903     -50526.134334
2.475           -4.5125        -49.124783     -50547.987034
2.585           -4.5125        -52.818452     -50571.459788
2.695           -4.5125        -56.740078     -50596.643528
2.805           -4.5125        -60.907318     -50623.641703
2.915           -4.5125        -65.33903      -50652.565464
3.025           -4.5125        -70.055371     -50683.534171
3.135           -4.5125        -75.071785     -50716.680226
3.245           -4.5125        -80.247587     -50752.26338
3.355           -4.5125        -85.752444     -50790.323363
3.465           -4.5125        -91.609797     -50831.020525
3.575           -4.5125        -97.84467      -50874.52683
3.685           -4.5125        -104.483795    -50921.026672
3.795           -4.5125        -111.67572     -50970.778595
3.905           -4.5125        -119.529184    -51024.033948
4.015           -4.5125        -127.925918    -51080.943341
4.125           -4.5125        -136.906532    -51141.753145
4.235           -4.5125        -146.514683    -51206.727528
4.345           -4.5125        -156.797301    -51276.149739
4.455           -4.5125        -167.804848    -51350.323482
4.565           -4.5125        -179.38429     -51429.729452
4.675           -4.5125        -191.579367    -51514.728918
4.785           -4.5125        -204.60993     -51605.577964
4.895           -4.5125        -218.535535    -51702.683903
5.005           -4.5125        -233.419904    -51806.48365
5.115           -4.5125        -249.33118     -51917.445853
5.225           -4.5125        -266.986118    -52036.397846
5.335           -4.5125        -285.979836    -52163.635339
5.445           -4.5125        -306.357099    -52299.71705
5.555           -4.5125        -328.220972    -52445.270103
5.665           -4.5125        -351.681597    -52600.966836
5.775           -4.5125        -376.856433    -52767.527783
5.885           -4.5125        -403.831623    -52945.752911
5.995           -4.5125        -431.868343    -53137.124804
6.105           -4.5125        -461.866872    -53341.954345
6.215           -4.5125        -493.956951    -53561.198632
6.325           -4.5125        -528.273718    -53795.879429
6.435           -4.5125        -564.957027    -54047.085955
6.545           -4.5125        -604.834684    -54316.325081
6.655           -4.5125        -648.461357    -54605.038863
6.765           -4.5125        -695.149636    -54914.110645
6.875           -4.5125        -745.063655    -55244.931047
6.985           -4.5125        -798.359886    -55598.96279
7.095           -4.5125        -855.181421    -55977.737443
7.205           -4.5125        -915.650702    -56382.849851
7.315           -4.5125        -978.695738    -56816.791479
7.425           -4.5125        -1044.337427   -57281.255831
7.535           -4.5125        -1113.465336   -57777.294177
7.645           -4.5125        -1186.002839   -58306.611031
7.755           -4.5125        -1261.795172   -58870.871638
7.865           -4.5125        -1340.591463   -59471.661151
7.975           -4.5125        -1424.996784   -60112.126392
8.085           -4.5125        -1511.791664   -60792.077832
8.195           -4.5125        -1599.976591   -61512.365144
8.305           -4.5125        -1688.488919   -62273.55589
8.415           -4.5125        -1775.990284   -63075.728212
8.525           -4.5125        -1860.838534   -63918.347228
8.635           -4.5125        -1940.997853   -64800.156154
8.745           -4.5125        -2011.341459   -65720.253028
8.855           -4.5125        -2072.710107   -66673.430986
8.965           -4.5125        -2122.606027   -67655.014443
9.075           -4.5125        -2158.4182     -68659.006511
9.185           -4.5125        -2177.529392   -69678.025771
9.295           -4.5125        -2176.817064   -70703.465739
9.405           -4.5125        -2152.332986   -71724.500171
9.515           -4.5125        -2102.572193   -72729.297212
9.625           -4.5125        -2026.658583   -73705.756083
9.735           -4.5125        -1924.859003   -74641.532893
9.845           -4.5125        -1798.707509   -75524.607812
9.955           -4.5125        -1651.020876   -76343.911873
10.065          -4.5125        -1489.26885    -77087.32016
10.175          -4.5125        -1318.07867    -77748.204252
10.285          -4.5125        -1140.028639   -78323.562807
10.395          -4.5125        -958.65151     -78811.254534
10.505          -4.5125        -777.548446    -79211.366313
10.615          -4.5125        -600.487103    -79526.971467
10.725          -4.5125        -423.218841    -79756.367052
10.835          -4.5125        -251.386562    -79906.953499
10.945          -4.5125        -81.440773     -79977.90949
0.055           -4.4175        -1.099807      -50326.663545
0.165           -4.4175        -3.287479      -50327.457286
0.275           -4.4175        -5.57619       -50328.834207
0.385           -4.4175        -7.767269      -50330.967576
0.495           -4.4175        -10.065053     -50333.888015
0.605           -4.4175        -12.403502     -50337.551334
0.715           -4.4175        -14.803422     -50341.973809
0.825           -4.4175        -17.26419      -50347.175777
0.935           -4.4175        -19.795756     -50353.175245
1.045           -4.4175        -22.408112     -50359.994842
1.155           -4.4175        -25.07087      -50367.690844
1.265           -4.4175        -27.811151     -50376.28267
1.375           -4.4175        -30.659894     -50385.78967
1.485           -4.4175        -33.628249     -50396.249464
1.595           -4.4175        -36.727962     -50407.703531
1.705           -4.4175        -39.994899     -50420.208797
1.815           -4.4175        -43.493187     -50433.840564
1.925           -4.4175        -47.173171     -50448.620844
2.035           -4.4175        -51.050588     -50464.609026
2.145           -4.4175        -55.14209      -50481.869426
2.255           -4.4175        -59.465331     -50500.471575
2.365           -4.4175        -64.039052     -50520.490526
2.475           -4.4175        -68.872347     -50542.016558
2.585           -4.4175        -73.891266     -50565.210647
2.695           -4.4175        -79.209203     -50590.095958
2.805           -4.4175        -84.848304     -50616.774761
2.915           -4.4175        -90.832141     -50645.356938
3.025           -4.4175        -97.185828     -50675.960487
3.135           -4.4175        -104.083573    -50708.780015
3.245           -4.4175        -111.482725    -50743.920363
3.355           -4.4175        -119.369362    -50781.504973
3.465           -4.4175        -127.779807    -50821.691909
3.575           -4.4175        -136.752989    -50864.650665
3.685           -4.4175        -146.330651    -50910.562963
3.795           -4.4175        -156.557566    -50959.62361
3.905           -4.4175        -167.337515    -51012.160972
4.015           -4.4175        -178.738105    -51068.381072
4.125           -4.4175        -190.903171    -51128.45473
4.235           -4.4175        -203.887388    -51192.642949
4.345           -4.4175        -217.749316    -51261.225587
4.455           -4.4175        -232.657623    -51334.54819
4.565           -4.4175        -248.948505    -51413.064623
4.675           -4.4175        -266.392808    -51496.97637
4.785           -4.4175        -285.076603    -51586.657568
4.895           -4.4175        -305.092392    -51682.509565
5.005           -4.4175        -326.539547    -51784.962891
5.115           -4.4175        -349.524792    -51894.479378
5.225           -4.4175        -374.111766    -52011.602571
5.335           -4.4175        -399.933189    -52137.251399
5.445           -4.4175        -427.56923     -52271.635667
5.555           -4.4175        -457.149358    -52415.375539
5.665           -4.4175        -488.811482    -52569.136128
5.775           -4.4175        -522.702217    -52733.630517
5.885           -4.4175        -559.786999    -52909.989248
5.995           -4.4175        -599.846717    -53098.872074
6.105           -4.4175        -642.818362    -53301.037413
6.215           -4.4175        -688.905162    -53517.433331
6.325           -4.4175        -738.319878    -53749.073212
6.435           -4.4175        -791.283769    -53997.038972
6.545           -4.4175        -848.025045    -54262.484029
6.655           -4.4175        -907.958042    -54547.31023
6.765           -4.4175        -971.418763    -54852.702052
6.875           -4.4175        -1039.119524   -55179.660766
6.985           -4.4175        -1111.259837   -55529.657096
7.095           -4.4175        -1188.023962   -55904.23592
7.205           -4.4175        -1270.20826    -56305.305501
7.315           -4.4175        -1359.279857   -56735.238085
7.425           -4.4175        -1453.655753   -57194.962448
7.535           -4.4175        -1553.346235   -57686.257703
7.645           -4.4175        -1658.265328   -58210.916994
7.755           -4.4175        -1768.203599   -58770.719219
7.865           -4.4175        -1882.796193   -59367.392404
7.975           -4.4175        -2001.086497   -60002.849836
8.085           -4.4175        -2119.934746   -60680.087537
8.195           -4.4175        -2240.725846   -61398.550772
8.305           -4.4175        -2362.130413   -62159.049756
8.415           -4.4175        -2482.488091   -62961.933361
8.525           -4.4175        -2599.775484   -63806.961195
8.635           -4.4175        -2713.997878   -64695.017535
8.745           -4.4175        -2819.385673   -65622.52075
8.855           -4.4175        -2911.97925    -66586.100787
8.965           -4.4175        -2987.765835   -67581.356613
9.075           -4.4175        -3042.465793   -68602.445189
9.185           -4.4175        -3071.717138   -69641.962058
9.295           -4.4175        -3071.331257   -70690.886434
9.405           -4.4175        -3036.753912   -71737.822416
9.515           -4.4175        -2968.107744   -72769.477874
9.625           -4.4175        -2864.341448   -73773.354581
9.735           -4.4175        -2725.741768   -74735.990286
9.845           -4.4175        -2554.145136   -75644.154186
9.955           -4.4175        -2350.710614   -76484.659023
10.065          -4.4175        -2117.111482   -77244.932772
10.175          -4.4175        -1865.163623   -77918.977479
10.285          -4.4175        -1602.493007   -78502.344037
10.395          -4.4175        -1336.08561    -78993.435425
10.505          -4.4175        -1072.53683    -79392.99458
10.615          -4.4175        -817.591507    -79702.506437
10.725          -4.4175        -581.595971    -79924.316067
10.835          -4.4175        -342.166331    -80071.782798
10.945          -4.4175        -111.962486    -80142.663243
0.055           -4.3225        -1.4116        -50322.32378
0.165           -4.3225        -4.24069       -50323.002673
0.275           -4.3225        -7.183074      -50324.514784
0.385           -4.3225        -10.01589      -50326.543667
0.495           -4.3225        -12.842859     -50329.499941
0.605           -4.3225        -15.883086     -50333.001331
0.715           -4.3225        -18.90942      -50337.35107
0.825           -4.3225        -21.991963     -50342.472286
0.935           -4.3225        -25.155325     -50348.378448
1.045           -4.3225        -28.461356     -50355.114865
1.155           -4.3225        -31.906524     -50362.699099
1.265           -4.3225        -35.482405     -50371.149629
1.375           -4.3225        -39.204179     -50380.499878
1.485           -4.3225        -43.086759     -50390.786501
1.595           -4.3225        -47.146174     -50402.050233
1.705           -4.3225        -51.399347     -50414.335731
1.815           -4.3225        -55.852097     -50427.703068
1.925           -4.3225        -60.466826     -50442.249007
2.035           -4.3225        -65.322881     -50457.984377
2.145           -4.3225        -70.439946     -50474.972529
2.255           -4.3225        -75.838852     -50493.28195
2.365           -4.3225        -81.549668     -50512.987722
2.475           -4.3225        -87.718906     -50534.228552
2.585           -4.3225        -94.259277     -50557.037829
2.695           -4.3225        -101.199492    -50581.508899
2.805           -4.3225        -108.570166    -50607.742115
2.915           -4.3225        -116.403962    -50635.845285
3.025           -4.3225        -124.735764    -50665.934164
3.135           -4.3225        -133.602846    -50698.132986
3.245           -4.3225        -142.948471    -50732.66507
3.355           -4.3225        -152.834332    -50769.645946
3.465           -4.3225        -163.359412    -50809.188053
3.575           -4.3225        -174.569664    -50851.45822
3.685           -4.3225        -186.514228    -50896.63531
3.795           -4.3225        -199.409458    -50944.974166
3.905           -4.3225        -213.316747    -50996.69574
4.015           -4.3225        -228.176805    -51051.962542
4.125           -4.3225        -244.060045    -51111.013212
4.235           -4.3225        -261.042091    -51174.103605
4.345           -4.3225        -279.204175    -51241.508034
4.455           -4.3225        -298.633566    -51313.520601
4.565           -4.3225        -319.38691     -51390.504382
4.675           -4.3225        -341.270918    -51473.029819
4.785           -4.3225        -364.668992    -51561.229687
4.895           -4.3225        -389.690537    -51655.49884
5.005           -4.3225        -416.452781    -51756.260899
5.115           -4.3225        -445.115044    -51863.96784
5.225           -4.3225        -476.473517    -51979.420375
5.335           -4.3225        -510.091365    -52102.87967
5.445           -4.3225        -546.136262    -52234.913031
5.555           -4.3225        -584.787706    -52376.129247
5.665           -4.3225        -626.237585    -52527.181532
5.775           -4.3225        -670.69067     -52688.770627
5.885           -4.3225        -718.365027    -52861.648067
5.995           -4.3225        -768.980237    -53047.111859
6.105           -4.3225        -822.860905    -53245.881098
6.215           -4.3225        -880.549307    -53458.661457
6.325           -4.3225        -942.298364    -53686.456866
6.435           -4.3225        -1008.37096    -53930.340731
6.545           -4.3225        -1079.979164   -54191.825596
6.655           -4.3225        -1157.397872   -54472.214067
6.765           -4.3225        -1240.246737   -54772.491661
6.875           -4.3225        -1328.827434   -55094.056196
6.985           -4.3225        -1423.432634   -55438.388867
7.095           -4.3225        -1524.33718    -55807.054185
7.205           -4.3225        -1631.786807   -56201.698229
7.315           -4.3225        -1745.68465    -56624.348252
7.425           -4.3225        -1864.601502   -57077.956756
7.535           -4.3225        -1990.121001   -57563.121186
7.645           -4.3225        -2122.159849   -58081.730036
7.755           -4.3225        -2260.496633   -58635.68216
7.865           -4.3225        -2405.188267   -59227.062471
7.975           -4.3225        -2558.191188   -59859.102594
8.085           -4.3225        -2715.75622    -60532.105857
8.195           -4.3225        -2876.556445   -61247.565025
8.305           -4.3225        -3038.841098   -62006.679357
8.415           -4.3225        -3200.36913    -62810.242527
8.525           -4.3225        -3358.345939   -63658.507612
8.635           -4.3225        -3509.370009   -64551.027822
8.745           -4.3225        -3645.932772   -65487.952184
8.855           -4.3225        -3766.369113   -66464.901401
8.965           -4.3225        -3866.359256   -67477.583761
9.075           -4.3225        -3940.687534   -68520.375402
9.185           -4.3225        -3984.006155   -69585.917292
9.295           -4.3225        -3991.322039   -70666.78742
9.405           -4.3225        -3953.322606   -71748.586244
9.515           -4.3225        -3867.655827   -72818.472419
9.625           -4.3225        -3732.036873   -73861.85623
9.735           -4.3225        -3546.410405   -74863.378273
9.845           -4.3225        -3313.353861   -75807.695867
9.955           -4.3225        -3038.235928   -76680.459295
10.065          -4.3225        -2731.131963   -77467.322621
10.175          -4.3225        -2405.31678    -78157.737994
10.285          -4.3225        -2067.452809   -78750.001365
10.395          -4.3225        -1726.460955   -79243.030354